V -t * -v 1.0a5 -a 0
W -t * -x 500 -y 350
A -t * -n 1 -p 0 -o 0x7fffffff -c 30 -a 1
A -t * -h 1 -m 1073741823 -s 0
n -t * -a 4 -s 4 -S UP -v circle -c black -i black -x 500 -y 150
n -t * -a 0 -s 0 -S UP -v circle -c black -i black -x 100 -y 200
n -t * -a 1 -s 1 -S UP -v circle -c black -i black -x 300 -y 200
n -t * -a 2 -s 2 -S UP -v circle -c black -i black -x 200 -y 350
n -t * -a 3 -s 3 -S UP -v circle -c black -i black -x 400 -y 300
l -t * -s 0 -d 1 -S UP -r 100000000 -D 0.01 -c black -o right
l -t * -s 0 -d 2 -S UP -r 100000000 -D 0.01 -c black -o right-down
l -t * -s 2 -d 3 -S UP -r 100000000 -D 0.01 -c black -o right
l -t * -s 1 -d 3 -S UP -r 100000000 -D 0.01 -c black -o left-down
l -t * -s 3 -d 4 -S UP -r 100000000 -D 0.01 -c black -o left-down
l -t * -s 0 -d 3 -S UP -r 100000000 -D 0.01 -c black -o right-down
l -t * -s 1 -d 2 -S UP -r 100000000 -D 0.01 -c black -o left-down
+ -t 0.000169788487334637 -s 0 -d 1 -p rtProtoLS -e 100 -c 0 -i 0 -a 0 -x {0.2 1.1 -1 ------- null}
- -t 0.000169788487334637 -s 0 -d 1 -p rtProtoLS -e 100 -c 0 -i 0 -a 0 -x {0.2 1.1 -1 ------- null}
h -t 0.000169788487334637 -s 0 -d 1 -p rtProtoLS -e 100 -c 0 -i 0 -a 0 -x {0.2 1.1 -1 ------- null}
+ -t 0.000169788487334637 -s 0 -d 2 -p rtProtoLS -e 100 -c 0 -i 1 -a 0 -x {0.2 2.1 -1 ------- null}
- -t 0.000169788487334637 -s 0 -d 2 -p rtProtoLS -e 100 -c 0 -i 1 -a 0 -x {0.2 2.1 -1 ------- null}
h -t 0.000169788487334637 -s 0 -d 2 -p rtProtoLS -e 100 -c 0 -i 1 -a 0 -x {0.2 2.1 -1 ------- null}
+ -t 0.000169788487334637 -s 0 -d 3 -p rtProtoLS -e 100 -c 0 -i 2 -a 0 -x {0.2 3.1 -1 ------- null}
- -t 0.000169788487334637 -s 0 -d 3 -p rtProtoLS -e 100 -c 0 -i 2 -a 0 -x {0.2 3.1 -1 ------- null}
h -t 0.000169788487334637 -s 0 -d 3 -p rtProtoLS -e 100 -c 0 -i 2 -a 0 -x {0.2 3.1 -1 ------- null}
+ -t 0.00710233021858257 -s 2 -d 0 -p rtProtoLS -e 100 -c 0 -i 3 -a 0 -x {2.1 0.2 -1 ------- null}
- -t 0.00710233021858257 -s 2 -d 0 -p rtProtoLS -e 100 -c 0 -i 3 -a 0 -x {2.1 0.2 -1 ------- null}
h -t 0.00710233021858257 -s 2 -d 0 -p rtProtoLS -e 100 -c 0 -i 3 -a 0 -x {2.1 0.2 -1 ------- null}
+ -t 0.00710233021858257 -s 2 -d 1 -p rtProtoLS -e 100 -c 0 -i 4 -a 0 -x {2.1 1.1 -1 ------- null}
- -t 0.00710233021858257 -s 2 -d 1 -p rtProtoLS -e 100 -c 0 -i 4 -a 0 -x {2.1 1.1 -1 ------- null}
h -t 0.00710233021858257 -s 2 -d 1 -p rtProtoLS -e 100 -c 0 -i 4 -a 0 -x {2.1 1.1 -1 ------- null}
+ -t 0.00710233021858257 -s 2 -d 3 -p rtProtoLS -e 100 -c 0 -i 5 -a 0 -x {2.1 3.1 -1 ------- null}
- -t 0.00710233021858257 -s 2 -d 3 -p rtProtoLS -e 100 -c 0 -i 5 -a 0 -x {2.1 3.1 -1 ------- null}
h -t 0.00710233021858257 -s 2 -d 3 -p rtProtoLS -e 100 -c 0 -i 5 -a 0 -x {2.1 3.1 -1 ------- null}
r -t 0.0101777884873346 -s 0 -d 1 -p rtProtoLS -e 100 -c 0 -i 0 -a 0 -x {0.2 1.1 -1 ------- null}
+ -t 0.0101777884873346 -s 1 -d 0 -p rtProtoLS -e 20 -c 0 -i 6 -a 0 -x {1.1 0.2 -1 ------- null}
- -t 0.0101777884873346 -s 1 -d 0 -p rtProtoLS -e 20 -c 0 -i 6 -a 0 -x {1.1 0.2 -1 ------- null}
h -t 0.0101777884873346 -s 1 -d 0 -p rtProtoLS -e 20 -c 0 -i 6 -a 0 -x {1.1 0.2 -1 ------- null}
+ -t 0.0101777884873346 -s 1 -d 2 -p rtProtoLS -e 100 -c 0 -i 7 -a 0 -x {1.1 2.1 -1 ------- null}
- -t 0.0101777884873346 -s 1 -d 2 -p rtProtoLS -e 100 -c 0 -i 7 -a 0 -x {1.1 2.1 -1 ------- null}
h -t 0.0101777884873346 -s 1 -d 2 -p rtProtoLS -e 100 -c 0 -i 7 -a 0 -x {1.1 2.1 -1 ------- null}
+ -t 0.0101777884873346 -s 1 -d 3 -p rtProtoLS -e 100 -c 0 -i 8 -a 0 -x {1.1 3.1 -1 ------- null}
- -t 0.0101777884873346 -s 1 -d 3 -p rtProtoLS -e 100 -c 0 -i 8 -a 0 -x {1.1 3.1 -1 ------- null}
h -t 0.0101777884873346 -s 1 -d 3 -p rtProtoLS -e 100 -c 0 -i 8 -a 0 -x {1.1 3.1 -1 ------- null}
r -t 0.0101777884873346 -s 0 -d 2 -p rtProtoLS -e 100 -c 0 -i 1 -a 0 -x {0.2 2.1 -1 ------- null}
+ -t 0.0101777884873346 -s 2 -d 0 -p rtProtoLS -e 20 -c 0 -i 9 -a 0 -x {2.1 0.2 -1 ------- null}
- -t 0.0101777884873346 -s 2 -d 0 -p rtProtoLS -e 20 -c 0 -i 9 -a 0 -x {2.1 0.2 -1 ------- null}
h -t 0.0101777884873346 -s 2 -d 0 -p rtProtoLS -e 20 -c 0 -i 9 -a 0 -x {2.1 0.2 -1 ------- null}
+ -t 0.0101777884873346 -s 2 -d 1 -p rtProtoLS -e 100 -c 0 -i 10 -a 0 -x {2.1 1.1 -1 ------- null}
- -t 0.0101777884873346 -s 2 -d 1 -p rtProtoLS -e 100 -c 0 -i 10 -a 0 -x {2.1 1.1 -1 ------- null}
h -t 0.0101777884873346 -s 2 -d 1 -p rtProtoLS -e 100 -c 0 -i 10 -a 0 -x {2.1 1.1 -1 ------- null}
+ -t 0.0101777884873346 -s 2 -d 3 -p rtProtoLS -e 100 -c 0 -i 11 -a 0 -x {2.1 3.1 -1 ------- null}
- -t 0.0101777884873346 -s 2 -d 3 -p rtProtoLS -e 100 -c 0 -i 11 -a 0 -x {2.1 3.1 -1 ------- null}
h -t 0.0101777884873346 -s 2 -d 3 -p rtProtoLS -e 100 -c 0 -i 11 -a 0 -x {2.1 3.1 -1 ------- null}
r -t 0.0101777884873346 -s 0 -d 3 -p rtProtoLS -e 100 -c 0 -i 2 -a 0 -x {0.2 3.1 -1 ------- null}
+ -t 0.0101777884873346 -s 3 -d 0 -p rtProtoLS -e 20 -c 0 -i 12 -a 0 -x {3.1 0.2 -1 ------- null}
- -t 0.0101777884873346 -s 3 -d 0 -p rtProtoLS -e 20 -c 0 -i 12 -a 0 -x {3.1 0.2 -1 ------- null}
h -t 0.0101777884873346 -s 3 -d 0 -p rtProtoLS -e 20 -c 0 -i 12 -a 0 -x {3.1 0.2 -1 ------- null}
+ -t 0.0101777884873346 -s 3 -d 1 -p rtProtoLS -e 100 -c 0 -i 13 -a 0 -x {3.1 1.1 -1 ------- null}
- -t 0.0101777884873346 -s 3 -d 1 -p rtProtoLS -e 100 -c 0 -i 13 -a 0 -x {3.1 1.1 -1 ------- null}
h -t 0.0101777884873346 -s 3 -d 1 -p rtProtoLS -e 100 -c 0 -i 13 -a 0 -x {3.1 1.1 -1 ------- null}
+ -t 0.0101777884873346 -s 3 -d 2 -p rtProtoLS -e 100 -c 0 -i 14 -a 0 -x {3.1 2.1 -1 ------- null}
- -t 0.0101777884873346 -s 3 -d 2 -p rtProtoLS -e 100 -c 0 -i 14 -a 0 -x {3.1 2.1 -1 ------- null}
h -t 0.0101777884873346 -s 3 -d 2 -p rtProtoLS -e 100 -c 0 -i 14 -a 0 -x {3.1 2.1 -1 ------- null}
+ -t 0.0101777884873346 -s 3 -d 4 -p rtProtoLS -e 100 -c 0 -i 15 -a 0 -x {3.1 4.2 -1 ------- null}
- -t 0.0101777884873346 -s 3 -d 4 -p rtProtoLS -e 100 -c 0 -i 15 -a 0 -x {3.1 4.2 -1 ------- null}
h -t 0.0101777884873346 -s 3 -d 4 -p rtProtoLS -e 100 -c 0 -i 15 -a 0 -x {3.1 4.2 -1 ------- null}
r -t 0.0171103302185826 -s 2 -d 0 -p rtProtoLS -e 100 -c 0 -i 3 -a 0 -x {2.1 0.2 -1 ------- null}
+ -t 0.0171103302185826 -s 0 -d 2 -p rtProtoLS -e 20 -c 0 -i 16 -a 0 -x {0.2 2.1 -1 ------- null}
- -t 0.0171103302185826 -s 0 -d 2 -p rtProtoLS -e 20 -c 0 -i 16 -a 0 -x {0.2 2.1 -1 ------- null}
h -t 0.0171103302185826 -s 0 -d 2 -p rtProtoLS -e 20 -c 0 -i 16 -a 0 -x {0.2 2.1 -1 ------- null}
+ -t 0.0171103302185826 -s 0 -d 1 -p rtProtoLS -e 100 -c 0 -i 17 -a 0 -x {0.2 1.1 -1 ------- null}
- -t 0.0171103302185826 -s 0 -d 1 -p rtProtoLS -e 100 -c 0 -i 17 -a 0 -x {0.2 1.1 -1 ------- null}
h -t 0.0171103302185826 -s 0 -d 1 -p rtProtoLS -e 100 -c 0 -i 17 -a 0 -x {0.2 1.1 -1 ------- null}
+ -t 0.0171103302185826 -s 0 -d 3 -p rtProtoLS -e 100 -c 0 -i 18 -a 0 -x {0.2 3.1 -1 ------- null}
- -t 0.0171103302185826 -s 0 -d 3 -p rtProtoLS -e 100 -c 0 -i 18 -a 0 -x {0.2 3.1 -1 ------- null}
h -t 0.0171103302185826 -s 0 -d 3 -p rtProtoLS -e 100 -c 0 -i 18 -a 0 -x {0.2 3.1 -1 ------- null}
r -t 0.0171103302185826 -s 2 -d 1 -p rtProtoLS -e 100 -c 0 -i 4 -a 0 -x {2.1 1.1 -1 ------- null}
+ -t 0.0171103302185826 -s 1 -d 2 -p rtProtoLS -e 20 -c 0 -i 19 -a 0 -x {1.1 2.1 -1 ------- null}
- -t 0.0171103302185826 -s 1 -d 2 -p rtProtoLS -e 20 -c 0 -i 19 -a 0 -x {1.1 2.1 -1 ------- null}
h -t 0.0171103302185826 -s 1 -d 2 -p rtProtoLS -e 20 -c 0 -i 19 -a 0 -x {1.1 2.1 -1 ------- null}
+ -t 0.0171103302185826 -s 1 -d 0 -p rtProtoLS -e 100 -c 0 -i 20 -a 0 -x {1.1 0.2 -1 ------- null}
- -t 0.0171103302185826 -s 1 -d 0 -p rtProtoLS -e 100 -c 0 -i 20 -a 0 -x {1.1 0.2 -1 ------- null}
h -t 0.0171103302185826 -s 1 -d 0 -p rtProtoLS -e 100 -c 0 -i 20 -a 0 -x {1.1 0.2 -1 ------- null}
+ -t 0.0171103302185826 -s 1 -d 3 -p rtProtoLS -e 100 -c 0 -i 21 -a 0 -x {1.1 3.1 -1 ------- null}
- -t 0.0171103302185826 -s 1 -d 3 -p rtProtoLS -e 100 -c 0 -i 21 -a 0 -x {1.1 3.1 -1 ------- null}
h -t 0.0171103302185826 -s 1 -d 3 -p rtProtoLS -e 100 -c 0 -i 21 -a 0 -x {1.1 3.1 -1 ------- null}
r -t 0.0171103302185826 -s 2 -d 3 -p rtProtoLS -e 100 -c 0 -i 5 -a 0 -x {2.1 3.1 -1 ------- null}
+ -t 0.0171103302185826 -s 3 -d 2 -p rtProtoLS -e 20 -c 0 -i 22 -a 0 -x {3.1 2.1 -1 ------- null}
- -t 0.0171103302185826 -s 3 -d 2 -p rtProtoLS -e 20 -c 0 -i 22 -a 0 -x {3.1 2.1 -1 ------- null}
h -t 0.0171103302185826 -s 3 -d 2 -p rtProtoLS -e 20 -c 0 -i 22 -a 0 -x {3.1 2.1 -1 ------- null}
+ -t 0.0171103302185826 -s 3 -d 0 -p rtProtoLS -e 100 -c 0 -i 23 -a 0 -x {3.1 0.2 -1 ------- null}
- -t 0.0171103302185826 -s 3 -d 0 -p rtProtoLS -e 100 -c 0 -i 23 -a 0 -x {3.1 0.2 -1 ------- null}
h -t 0.0171103302185826 -s 3 -d 0 -p rtProtoLS -e 100 -c 0 -i 23 -a 0 -x {3.1 0.2 -1 ------- null}
+ -t 0.0171103302185826 -s 3 -d 1 -p rtProtoLS -e 100 -c 0 -i 24 -a 0 -x {3.1 1.1 -1 ------- null}
- -t 0.0171103302185826 -s 3 -d 1 -p rtProtoLS -e 100 -c 0 -i 24 -a 0 -x {3.1 1.1 -1 ------- null}
h -t 0.0171103302185826 -s 3 -d 1 -p rtProtoLS -e 100 -c 0 -i 24 -a 0 -x {3.1 1.1 -1 ------- null}
+ -t 0.0171103302185826 -s 3 -d 4 -p rtProtoLS -e 100 -c 0 -i 25 -a 0 -x {3.1 4.2 -1 ------- null}
- -t 0.0171103302185826 -s 3 -d 4 -p rtProtoLS -e 100 -c 0 -i 25 -a 0 -x {3.1 4.2 -1 ------- null}
h -t 0.0171103302185826 -s 3 -d 4 -p rtProtoLS -e 100 -c 0 -i 25 -a 0 -x {3.1 4.2 -1 ------- null}
r -t 0.0201793884873346 -s 1 -d 0 -p rtProtoLS -e 20 -c 0 -i 6 -a 0 -x {1.1 0.2 -1 ------- null}
r -t 0.0201793884873346 -s 2 -d 0 -p rtProtoLS -e 20 -c 0 -i 9 -a 0 -x {2.1 0.2 -1 ------- null}
r -t 0.0201793884873346 -s 3 -d 0 -p rtProtoLS -e 20 -c 0 -i 12 -a 0 -x {3.1 0.2 -1 ------- null}
r -t 0.0201857884873346 -s 1 -d 2 -p rtProtoLS -e 100 -c 0 -i 7 -a 0 -x {1.1 2.1 -1 ------- null}
+ -t 0.0201857884873346 -s 2 -d 1 -p rtProtoLS -e 20 -c 0 -i 26 -a 0 -x {2.1 1.1 -1 ------- null}
- -t 0.0201857884873346 -s 2 -d 1 -p rtProtoLS -e 20 -c 0 -i 26 -a 0 -x {2.1 1.1 -1 ------- null}
h -t 0.0201857884873346 -s 2 -d 1 -p rtProtoLS -e 20 -c 0 -i 26 -a 0 -x {2.1 1.1 -1 ------- null}
r -t 0.0201857884873346 -s 1 -d 3 -p rtProtoLS -e 100 -c 0 -i 8 -a 0 -x {1.1 3.1 -1 ------- null}
+ -t 0.0201857884873346 -s 3 -d 1 -p rtProtoLS -e 20 -c 0 -i 27 -a 0 -x {3.1 1.1 -1 ------- null}
- -t 0.0201857884873346 -s 3 -d 1 -p rtProtoLS -e 20 -c 0 -i 27 -a 0 -x {3.1 1.1 -1 ------- null}
h -t 0.0201857884873346 -s 3 -d 1 -p rtProtoLS -e 20 -c 0 -i 27 -a 0 -x {3.1 1.1 -1 ------- null}
r -t 0.0201857884873346 -s 2 -d 1 -p rtProtoLS -e 100 -c 0 -i 10 -a 0 -x {2.1 1.1 -1 ------- null}
+ -t 0.0201857884873346 -s 1 -d 2 -p rtProtoLS -e 20 -c 0 -i 28 -a 0 -x {1.1 2.1 -1 ------- null}
- -t 0.0201857884873346 -s 1 -d 2 -p rtProtoLS -e 20 -c 0 -i 28 -a 0 -x {1.1 2.1 -1 ------- null}
h -t 0.0201857884873346 -s 1 -d 2 -p rtProtoLS -e 20 -c 0 -i 28 -a 0 -x {1.1 2.1 -1 ------- null}
r -t 0.0201857884873346 -s 2 -d 3 -p rtProtoLS -e 100 -c 0 -i 11 -a 0 -x {2.1 3.1 -1 ------- null}
+ -t 0.0201857884873346 -s 3 -d 2 -p rtProtoLS -e 20 -c 0 -i 29 -a 0 -x {3.1 2.1 -1 ------- null}
- -t 0.0201857884873346 -s 3 -d 2 -p rtProtoLS -e 20 -c 0 -i 29 -a 0 -x {3.1 2.1 -1 ------- null}
h -t 0.0201857884873346 -s 3 -d 2 -p rtProtoLS -e 20 -c 0 -i 29 -a 0 -x {3.1 2.1 -1 ------- null}
r -t 0.0201857884873346 -s 3 -d 1 -p rtProtoLS -e 100 -c 0 -i 13 -a 0 -x {3.1 1.1 -1 ------- null}
+ -t 0.0201857884873346 -s 1 -d 3 -p rtProtoLS -e 20 -c 0 -i 30 -a 0 -x {1.1 3.1 -1 ------- null}
- -t 0.0201857884873346 -s 1 -d 3 -p rtProtoLS -e 20 -c 0 -i 30 -a 0 -x {1.1 3.1 -1 ------- null}
h -t 0.0201857884873346 -s 1 -d 3 -p rtProtoLS -e 20 -c 0 -i 30 -a 0 -x {1.1 3.1 -1 ------- null}
r -t 0.0201857884873346 -s 3 -d 2 -p rtProtoLS -e 100 -c 0 -i 14 -a 0 -x {3.1 2.1 -1 ------- null}
+ -t 0.0201857884873346 -s 2 -d 3 -p rtProtoLS -e 20 -c 0 -i 31 -a 0 -x {2.1 3.1 -1 ------- null}
- -t 0.0201857884873346 -s 2 -d 3 -p rtProtoLS -e 20 -c 0 -i 31 -a 0 -x {2.1 3.1 -1 ------- null}
h -t 0.0201857884873346 -s 2 -d 3 -p rtProtoLS -e 20 -c 0 -i 31 -a 0 -x {2.1 3.1 -1 ------- null}
r -t 0.0201857884873346 -s 3 -d 4 -p rtProtoLS -e 100 -c 0 -i 15 -a 0 -x {3.1 4.2 -1 ------- null}
+ -t 0.0201857884873346 -s 4 -d 3 -p rtProtoLS -e 20 -c 0 -i 32 -a 0 -x {4.2 3.1 -1 ------- null}
- -t 0.0201857884873346 -s 4 -d 3 -p rtProtoLS -e 20 -c 0 -i 32 -a 0 -x {4.2 3.1 -1 ------- null}
h -t 0.0201857884873346 -s 4 -d 3 -p rtProtoLS -e 20 -c 0 -i 32 -a 0 -x {4.2 3.1 -1 ------- null}
r -t 0.0271119302185826 -s 0 -d 2 -p rtProtoLS -e 20 -c 0 -i 16 -a 0 -x {0.2 2.1 -1 ------- null}
r -t 0.0271119302185826 -s 1 -d 2 -p rtProtoLS -e 20 -c 0 -i 19 -a 0 -x {1.1 2.1 -1 ------- null}
r -t 0.0271119302185826 -s 3 -d 2 -p rtProtoLS -e 20 -c 0 -i 22 -a 0 -x {3.1 2.1 -1 ------- null}
r -t 0.0271183302185826 -s 0 -d 1 -p rtProtoLS -e 100 -c 0 -i 17 -a 0 -x {0.2 1.1 -1 ------- null}
+ -t 0.0271183302185826 -s 1 -d 0 -p rtProtoLS -e 20 -c 0 -i 33 -a 0 -x {1.1 0.2 -1 ------- null}
- -t 0.0271183302185826 -s 1 -d 0 -p rtProtoLS -e 20 -c 0 -i 33 -a 0 -x {1.1 0.2 -1 ------- null}
h -t 0.0271183302185826 -s 1 -d 0 -p rtProtoLS -e 20 -c 0 -i 33 -a 0 -x {1.1 0.2 -1 ------- null}
r -t 0.0271183302185826 -s 0 -d 3 -p rtProtoLS -e 100 -c 0 -i 18 -a 0 -x {0.2 3.1 -1 ------- null}
+ -t 0.0271183302185826 -s 3 -d 0 -p rtProtoLS -e 20 -c 0 -i 34 -a 0 -x {3.1 0.2 -1 ------- null}
- -t 0.0271183302185826 -s 3 -d 0 -p rtProtoLS -e 20 -c 0 -i 34 -a 0 -x {3.1 0.2 -1 ------- null}
h -t 0.0271183302185826 -s 3 -d 0 -p rtProtoLS -e 20 -c 0 -i 34 -a 0 -x {3.1 0.2 -1 ------- null}
r -t 0.0271183302185826 -s 1 -d 0 -p rtProtoLS -e 100 -c 0 -i 20 -a 0 -x {1.1 0.2 -1 ------- null}
+ -t 0.0271183302185826 -s 0 -d 1 -p rtProtoLS -e 20 -c 0 -i 35 -a 0 -x {0.2 1.1 -1 ------- null}
- -t 0.0271183302185826 -s 0 -d 1 -p rtProtoLS -e 20 -c 0 -i 35 -a 0 -x {0.2 1.1 -1 ------- null}
h -t 0.0271183302185826 -s 0 -d 1 -p rtProtoLS -e 20 -c 0 -i 35 -a 0 -x {0.2 1.1 -1 ------- null}
r -t 0.0271183302185826 -s 1 -d 3 -p rtProtoLS -e 100 -c 0 -i 21 -a 0 -x {1.1 3.1 -1 ------- null}
+ -t 0.0271183302185826 -s 3 -d 1 -p rtProtoLS -e 20 -c 0 -i 36 -a 0 -x {3.1 1.1 -1 ------- null}
- -t 0.0271183302185826 -s 3 -d 1 -p rtProtoLS -e 20 -c 0 -i 36 -a 0 -x {3.1 1.1 -1 ------- null}
h -t 0.0271183302185826 -s 3 -d 1 -p rtProtoLS -e 20 -c 0 -i 36 -a 0 -x {3.1 1.1 -1 ------- null}
r -t 0.0271183302185826 -s 3 -d 0 -p rtProtoLS -e 100 -c 0 -i 23 -a 0 -x {3.1 0.2 -1 ------- null}
+ -t 0.0271183302185826 -s 0 -d 3 -p rtProtoLS -e 20 -c 0 -i 37 -a 0 -x {0.2 3.1 -1 ------- null}
- -t 0.0271183302185826 -s 0 -d 3 -p rtProtoLS -e 20 -c 0 -i 37 -a 0 -x {0.2 3.1 -1 ------- null}
h -t 0.0271183302185826 -s 0 -d 3 -p rtProtoLS -e 20 -c 0 -i 37 -a 0 -x {0.2 3.1 -1 ------- null}
r -t 0.0271183302185826 -s 3 -d 1 -p rtProtoLS -e 100 -c 0 -i 24 -a 0 -x {3.1 1.1 -1 ------- null}
+ -t 0.0271183302185826 -s 1 -d 3 -p rtProtoLS -e 20 -c 0 -i 38 -a 0 -x {1.1 3.1 -1 ------- null}
- -t 0.0271183302185826 -s 1 -d 3 -p rtProtoLS -e 20 -c 0 -i 38 -a 0 -x {1.1 3.1 -1 ------- null}
h -t 0.0271183302185826 -s 1 -d 3 -p rtProtoLS -e 20 -c 0 -i 38 -a 0 -x {1.1 3.1 -1 ------- null}
r -t 0.0271183302185826 -s 3 -d 4 -p rtProtoLS -e 100 -c 0 -i 25 -a 0 -x {3.1 4.2 -1 ------- null}
+ -t 0.0271183302185826 -s 4 -d 3 -p rtProtoLS -e 20 -c 0 -i 39 -a 0 -x {4.2 3.1 -1 ------- null}
- -t 0.0271183302185826 -s 4 -d 3 -p rtProtoLS -e 20 -c 0 -i 39 -a 0 -x {4.2 3.1 -1 ------- null}
h -t 0.0271183302185826 -s 4 -d 3 -p rtProtoLS -e 20 -c 0 -i 39 -a 0 -x {4.2 3.1 -1 ------- null}
r -t 0.0301873884873346 -s 2 -d 1 -p rtProtoLS -e 20 -c 0 -i 26 -a 0 -x {2.1 1.1 -1 ------- null}
r -t 0.0301873884873346 -s 3 -d 1 -p rtProtoLS -e 20 -c 0 -i 27 -a 0 -x {3.1 1.1 -1 ------- null}
r -t 0.0301873884873346 -s 1 -d 2 -p rtProtoLS -e 20 -c 0 -i 28 -a 0 -x {1.1 2.1 -1 ------- null}
r -t 0.0301873884873346 -s 3 -d 2 -p rtProtoLS -e 20 -c 0 -i 29 -a 0 -x {3.1 2.1 -1 ------- null}
r -t 0.0301873884873346 -s 1 -d 3 -p rtProtoLS -e 20 -c 0 -i 30 -a 0 -x {1.1 3.1 -1 ------- null}
r -t 0.0301873884873346 -s 2 -d 3 -p rtProtoLS -e 20 -c 0 -i 31 -a 0 -x {2.1 3.1 -1 ------- null}
r -t 0.0301873884873346 -s 4 -d 3 -p rtProtoLS -e 20 -c 0 -i 32 -a 0 -x {4.2 3.1 -1 ------- null}
r -t 0.0371199302185826 -s 1 -d 0 -p rtProtoLS -e 20 -c 0 -i 33 -a 0 -x {1.1 0.2 -1 ------- null}
r -t 0.0371199302185826 -s 3 -d 0 -p rtProtoLS -e 20 -c 0 -i 34 -a 0 -x {3.1 0.2 -1 ------- null}
r -t 0.0371199302185826 -s 0 -d 1 -p rtProtoLS -e 20 -c 0 -i 35 -a 0 -x {0.2 1.1 -1 ------- null}
r -t 0.0371199302185826 -s 3 -d 1 -p rtProtoLS -e 20 -c 0 -i 36 -a 0 -x {3.1 1.1 -1 ------- null}
r -t 0.0371199302185826 -s 0 -d 3 -p rtProtoLS -e 20 -c 0 -i 37 -a 0 -x {0.2 3.1 -1 ------- null}
r -t 0.0371199302185826 -s 1 -d 3 -p rtProtoLS -e 20 -c 0 -i 38 -a 0 -x {1.1 3.1 -1 ------- null}
r -t 0.0371199302185826 -s 4 -d 3 -p rtProtoLS -e 20 -c 0 -i 39 -a 0 -x {4.2 3.1 -1 ------- null}
+ -t 0.04406133552271 -s 3 -d 0 -p rtProtoLS -e 100 -c 0 -i 40 -a 0 -x {3.1 0.2 -1 ------- null}
- -t 0.04406133552271 -s 3 -d 0 -p rtProtoLS -e 100 -c 0 -i 40 -a 0 -x {3.1 0.2 -1 ------- null}
h -t 0.04406133552271 -s 3 -d 0 -p rtProtoLS -e 100 -c 0 -i 40 -a 0 -x {3.1 0.2 -1 ------- null}
+ -t 0.04406133552271 -s 3 -d 1 -p rtProtoLS -e 100 -c 0 -i 41 -a 0 -x {3.1 1.1 -1 ------- null}
- -t 0.04406133552271 -s 3 -d 1 -p rtProtoLS -e 100 -c 0 -i 41 -a 0 -x {3.1 1.1 -1 ------- null}
h -t 0.04406133552271 -s 3 -d 1 -p rtProtoLS -e 100 -c 0 -i 41 -a 0 -x {3.1 1.1 -1 ------- null}
+ -t 0.04406133552271 -s 3 -d 2 -p rtProtoLS -e 100 -c 0 -i 42 -a 0 -x {3.1 2.1 -1 ------- null}
- -t 0.04406133552271 -s 3 -d 2 -p rtProtoLS -e 100 -c 0 -i 42 -a 0 -x {3.1 2.1 -1 ------- null}
h -t 0.04406133552271 -s 3 -d 2 -p rtProtoLS -e 100 -c 0 -i 42 -a 0 -x {3.1 2.1 -1 ------- null}
+ -t 0.04406133552271 -s 3 -d 4 -p rtProtoLS -e 100 -c 0 -i 43 -a 0 -x {3.1 4.2 -1 ------- null}
- -t 0.04406133552271 -s 3 -d 4 -p rtProtoLS -e 100 -c 0 -i 43 -a 0 -x {3.1 4.2 -1 ------- null}
h -t 0.04406133552271 -s 3 -d 4 -p rtProtoLS -e 100 -c 0 -i 43 -a 0 -x {3.1 4.2 -1 ------- null}
r -t 0.05406933552271 -s 3 -d 0 -p rtProtoLS -e 100 -c 0 -i 40 -a 0 -x {3.1 0.2 -1 ------- null}
+ -t 0.05406933552271 -s 0 -d 3 -p rtProtoLS -e 20 -c 0 -i 44 -a 0 -x {0.2 3.1 -1 ------- null}
- -t 0.05406933552271 -s 0 -d 3 -p rtProtoLS -e 20 -c 0 -i 44 -a 0 -x {0.2 3.1 -1 ------- null}
h -t 0.05406933552271 -s 0 -d 3 -p rtProtoLS -e 20 -c 0 -i 44 -a 0 -x {0.2 3.1 -1 ------- null}
+ -t 0.05406933552271 -s 0 -d 1 -p rtProtoLS -e 100 -c 0 -i 45 -a 0 -x {0.2 1.1 -1 ------- null}
- -t 0.05406933552271 -s 0 -d 1 -p rtProtoLS -e 100 -c 0 -i 45 -a 0 -x {0.2 1.1 -1 ------- null}
h -t 0.05406933552271 -s 0 -d 1 -p rtProtoLS -e 100 -c 0 -i 45 -a 0 -x {0.2 1.1 -1 ------- null}
+ -t 0.05406933552271 -s 0 -d 2 -p rtProtoLS -e 100 -c 0 -i 46 -a 0 -x {0.2 2.1 -1 ------- null}
- -t 0.05406933552271 -s 0 -d 2 -p rtProtoLS -e 100 -c 0 -i 46 -a 0 -x {0.2 2.1 -1 ------- null}
h -t 0.05406933552271 -s 0 -d 2 -p rtProtoLS -e 100 -c 0 -i 46 -a 0 -x {0.2 2.1 -1 ------- null}
r -t 0.05406933552271 -s 3 -d 1 -p rtProtoLS -e 100 -c 0 -i 41 -a 0 -x {3.1 1.1 -1 ------- null}
+ -t 0.05406933552271 -s 1 -d 3 -p rtProtoLS -e 20 -c 0 -i 47 -a 0 -x {1.1 3.1 -1 ------- null}
- -t 0.05406933552271 -s 1 -d 3 -p rtProtoLS -e 20 -c 0 -i 47 -a 0 -x {1.1 3.1 -1 ------- null}
h -t 0.05406933552271 -s 1 -d 3 -p rtProtoLS -e 20 -c 0 -i 47 -a 0 -x {1.1 3.1 -1 ------- null}
+ -t 0.05406933552271 -s 1 -d 0 -p rtProtoLS -e 100 -c 0 -i 48 -a 0 -x {1.1 0.2 -1 ------- null}
- -t 0.05406933552271 -s 1 -d 0 -p rtProtoLS -e 100 -c 0 -i 48 -a 0 -x {1.1 0.2 -1 ------- null}
h -t 0.05406933552271 -s 1 -d 0 -p rtProtoLS -e 100 -c 0 -i 48 -a 0 -x {1.1 0.2 -1 ------- null}
+ -t 0.05406933552271 -s 1 -d 2 -p rtProtoLS -e 100 -c 0 -i 49 -a 0 -x {1.1 2.1 -1 ------- null}
- -t 0.05406933552271 -s 1 -d 2 -p rtProtoLS -e 100 -c 0 -i 49 -a 0 -x {1.1 2.1 -1 ------- null}
h -t 0.05406933552271 -s 1 -d 2 -p rtProtoLS -e 100 -c 0 -i 49 -a 0 -x {1.1 2.1 -1 ------- null}
r -t 0.05406933552271 -s 3 -d 2 -p rtProtoLS -e 100 -c 0 -i 42 -a 0 -x {3.1 2.1 -1 ------- null}
+ -t 0.05406933552271 -s 2 -d 3 -p rtProtoLS -e 20 -c 0 -i 50 -a 0 -x {2.1 3.1 -1 ------- null}
- -t 0.05406933552271 -s 2 -d 3 -p rtProtoLS -e 20 -c 0 -i 50 -a 0 -x {2.1 3.1 -1 ------- null}
h -t 0.05406933552271 -s 2 -d 3 -p rtProtoLS -e 20 -c 0 -i 50 -a 0 -x {2.1 3.1 -1 ------- null}
+ -t 0.05406933552271 -s 2 -d 0 -p rtProtoLS -e 100 -c 0 -i 51 -a 0 -x {2.1 0.2 -1 ------- null}
- -t 0.05406933552271 -s 2 -d 0 -p rtProtoLS -e 100 -c 0 -i 51 -a 0 -x {2.1 0.2 -1 ------- null}
h -t 0.05406933552271 -s 2 -d 0 -p rtProtoLS -e 100 -c 0 -i 51 -a 0 -x {2.1 0.2 -1 ------- null}
+ -t 0.05406933552271 -s 2 -d 1 -p rtProtoLS -e 100 -c 0 -i 52 -a 0 -x {2.1 1.1 -1 ------- null}
- -t 0.05406933552271 -s 2 -d 1 -p rtProtoLS -e 100 -c 0 -i 52 -a 0 -x {2.1 1.1 -1 ------- null}
h -t 0.05406933552271 -s 2 -d 1 -p rtProtoLS -e 100 -c 0 -i 52 -a 0 -x {2.1 1.1 -1 ------- null}
r -t 0.05406933552271 -s 3 -d 4 -p rtProtoLS -e 100 -c 0 -i 43 -a 0 -x {3.1 4.2 -1 ------- null}
+ -t 0.05406933552271 -s 4 -d 3 -p rtProtoLS -e 20 -c 0 -i 53 -a 0 -x {4.2 3.1 -1 ------- null}
- -t 0.05406933552271 -s 4 -d 3 -p rtProtoLS -e 20 -c 0 -i 53 -a 0 -x {4.2 3.1 -1 ------- null}
h -t 0.05406933552271 -s 4 -d 3 -p rtProtoLS -e 20 -c 0 -i 53 -a 0 -x {4.2 3.1 -1 ------- null}
r -t 0.06407093552271 -s 0 -d 3 -p rtProtoLS -e 20 -c 0 -i 44 -a 0 -x {0.2 3.1 -1 ------- null}
r -t 0.06407093552271 -s 1 -d 3 -p rtProtoLS -e 20 -c 0 -i 47 -a 0 -x {1.1 3.1 -1 ------- null}
r -t 0.06407093552271 -s 2 -d 3 -p rtProtoLS -e 20 -c 0 -i 50 -a 0 -x {2.1 3.1 -1 ------- null}
r -t 0.06407093552271 -s 4 -d 3 -p rtProtoLS -e 20 -c 0 -i 53 -a 0 -x {4.2 3.1 -1 ------- null}
r -t 0.06407733552271 -s 0 -d 1 -p rtProtoLS -e 100 -c 0 -i 45 -a 0 -x {0.2 1.1 -1 ------- null}
+ -t 0.06407733552271 -s 1 -d 0 -p rtProtoLS -e 20 -c 0 -i 54 -a 0 -x {1.1 0.2 -1 ------- null}
- -t 0.06407733552271 -s 1 -d 0 -p rtProtoLS -e 20 -c 0 -i 54 -a 0 -x {1.1 0.2 -1 ------- null}
h -t 0.06407733552271 -s 1 -d 0 -p rtProtoLS -e 20 -c 0 -i 54 -a 0 -x {1.1 0.2 -1 ------- null}
r -t 0.06407733552271 -s 0 -d 2 -p rtProtoLS -e 100 -c 0 -i 46 -a 0 -x {0.2 2.1 -1 ------- null}
+ -t 0.06407733552271 -s 2 -d 0 -p rtProtoLS -e 20 -c 0 -i 55 -a 0 -x {2.1 0.2 -1 ------- null}
- -t 0.06407733552271 -s 2 -d 0 -p rtProtoLS -e 20 -c 0 -i 55 -a 0 -x {2.1 0.2 -1 ------- null}
h -t 0.06407733552271 -s 2 -d 0 -p rtProtoLS -e 20 -c 0 -i 55 -a 0 -x {2.1 0.2 -1 ------- null}
r -t 0.06407733552271 -s 1 -d 0 -p rtProtoLS -e 100 -c 0 -i 48 -a 0 -x {1.1 0.2 -1 ------- null}
+ -t 0.06407733552271 -s 0 -d 1 -p rtProtoLS -e 20 -c 0 -i 56 -a 0 -x {0.2 1.1 -1 ------- null}
- -t 0.06407733552271 -s 0 -d 1 -p rtProtoLS -e 20 -c 0 -i 56 -a 0 -x {0.2 1.1 -1 ------- null}
h -t 0.06407733552271 -s 0 -d 1 -p rtProtoLS -e 20 -c 0 -i 56 -a 0 -x {0.2 1.1 -1 ------- null}
r -t 0.06407733552271 -s 1 -d 2 -p rtProtoLS -e 100 -c 0 -i 49 -a 0 -x {1.1 2.1 -1 ------- null}
+ -t 0.06407733552271 -s 2 -d 1 -p rtProtoLS -e 20 -c 0 -i 57 -a 0 -x {2.1 1.1 -1 ------- null}
- -t 0.06407733552271 -s 2 -d 1 -p rtProtoLS -e 20 -c 0 -i 57 -a 0 -x {2.1 1.1 -1 ------- null}
h -t 0.06407733552271 -s 2 -d 1 -p rtProtoLS -e 20 -c 0 -i 57 -a 0 -x {2.1 1.1 -1 ------- null}
r -t 0.06407733552271 -s 2 -d 0 -p rtProtoLS -e 100 -c 0 -i 51 -a 0 -x {2.1 0.2 -1 ------- null}
+ -t 0.06407733552271 -s 0 -d 2 -p rtProtoLS -e 20 -c 0 -i 58 -a 0 -x {0.2 2.1 -1 ------- null}
- -t 0.06407733552271 -s 0 -d 2 -p rtProtoLS -e 20 -c 0 -i 58 -a 0 -x {0.2 2.1 -1 ------- null}
h -t 0.06407733552271 -s 0 -d 2 -p rtProtoLS -e 20 -c 0 -i 58 -a 0 -x {0.2 2.1 -1 ------- null}
r -t 0.06407733552271 -s 2 -d 1 -p rtProtoLS -e 100 -c 0 -i 52 -a 0 -x {2.1 1.1 -1 ------- null}
+ -t 0.06407733552271 -s 1 -d 2 -p rtProtoLS -e 20 -c 0 -i 59 -a 0 -x {1.1 2.1 -1 ------- null}
- -t 0.06407733552271 -s 1 -d 2 -p rtProtoLS -e 20 -c 0 -i 59 -a 0 -x {1.1 2.1 -1 ------- null}
h -t 0.06407733552271 -s 1 -d 2 -p rtProtoLS -e 20 -c 0 -i 59 -a 0 -x {1.1 2.1 -1 ------- null}
r -t 0.07407893552271 -s 1 -d 0 -p rtProtoLS -e 20 -c 0 -i 54 -a 0 -x {1.1 0.2 -1 ------- null}
r -t 0.07407893552271 -s 2 -d 0 -p rtProtoLS -e 20 -c 0 -i 55 -a 0 -x {2.1 0.2 -1 ------- null}
r -t 0.07407893552271 -s 0 -d 1 -p rtProtoLS -e 20 -c 0 -i 56 -a 0 -x {0.2 1.1 -1 ------- null}
r -t 0.07407893552271 -s 2 -d 1 -p rtProtoLS -e 20 -c 0 -i 57 -a 0 -x {2.1 1.1 -1 ------- null}
r -t 0.07407893552271 -s 0 -d 2 -p rtProtoLS -e 20 -c 0 -i 58 -a 0 -x {0.2 2.1 -1 ------- null}
r -t 0.07407893552271 -s 1 -d 2 -p rtProtoLS -e 20 -c 0 -i 59 -a 0 -x {1.1 2.1 -1 ------- null}
+ -t 0.22058669092161 -s 4 -d 3 -p rtProtoLS -e 100 -c 0 -i 60 -a 0 -x {4.2 3.1 -1 ------- null}
- -t 0.22058669092161 -s 4 -d 3 -p rtProtoLS -e 100 -c 0 -i 60 -a 0 -x {4.2 3.1 -1 ------- null}
h -t 0.22058669092161 -s 4 -d 3 -p rtProtoLS -e 100 -c 0 -i 60 -a 0 -x {4.2 3.1 -1 ------- null}
r -t 0.23059469092161 -s 4 -d 3 -p rtProtoLS -e 100 -c 0 -i 60 -a 0 -x {4.2 3.1 -1 ------- null}
+ -t 0.23059469092161 -s 3 -d 4 -p rtProtoLS -e 20 -c 0 -i 61 -a 0 -x {3.1 4.2 -1 ------- null}
- -t 0.23059469092161 -s 3 -d 4 -p rtProtoLS -e 20 -c 0 -i 61 -a 0 -x {3.1 4.2 -1 ------- null}
h -t 0.23059469092161 -s 3 -d 4 -p rtProtoLS -e 20 -c 0 -i 61 -a 0 -x {3.1 4.2 -1 ------- null}
+ -t 0.23059469092161 -s 3 -d 0 -p rtProtoLS -e 100 -c 0 -i 62 -a 0 -x {3.1 0.2 -1 ------- null}
- -t 0.23059469092161 -s 3 -d 0 -p rtProtoLS -e 100 -c 0 -i 62 -a 0 -x {3.1 0.2 -1 ------- null}
h -t 0.23059469092161 -s 3 -d 0 -p rtProtoLS -e 100 -c 0 -i 62 -a 0 -x {3.1 0.2 -1 ------- null}
+ -t 0.23059469092161 -s 3 -d 1 -p rtProtoLS -e 100 -c 0 -i 63 -a 0 -x {3.1 1.1 -1 ------- null}
- -t 0.23059469092161 -s 3 -d 1 -p rtProtoLS -e 100 -c 0 -i 63 -a 0 -x {3.1 1.1 -1 ------- null}
h -t 0.23059469092161 -s 3 -d 1 -p rtProtoLS -e 100 -c 0 -i 63 -a 0 -x {3.1 1.1 -1 ------- null}
+ -t 0.23059469092161 -s 3 -d 2 -p rtProtoLS -e 100 -c 0 -i 64 -a 0 -x {3.1 2.1 -1 ------- null}
- -t 0.23059469092161 -s 3 -d 2 -p rtProtoLS -e 100 -c 0 -i 64 -a 0 -x {3.1 2.1 -1 ------- null}
h -t 0.23059469092161 -s 3 -d 2 -p rtProtoLS -e 100 -c 0 -i 64 -a 0 -x {3.1 2.1 -1 ------- null}
r -t 0.24059629092161 -s 3 -d 4 -p rtProtoLS -e 20 -c 0 -i 61 -a 0 -x {3.1 4.2 -1 ------- null}
r -t 0.24060269092161 -s 3 -d 0 -p rtProtoLS -e 100 -c 0 -i 62 -a 0 -x {3.1 0.2 -1 ------- null}
+ -t 0.24060269092161 -s 0 -d 3 -p rtProtoLS -e 20 -c 0 -i 65 -a 0 -x {0.2 3.1 -1 ------- null}
- -t 0.24060269092161 -s 0 -d 3 -p rtProtoLS -e 20 -c 0 -i 65 -a 0 -x {0.2 3.1 -1 ------- null}
h -t 0.24060269092161 -s 0 -d 3 -p rtProtoLS -e 20 -c 0 -i 65 -a 0 -x {0.2 3.1 -1 ------- null}
+ -t 0.24060269092161 -s 0 -d 1 -p rtProtoLS -e 100 -c 0 -i 66 -a 0 -x {0.2 1.1 -1 ------- null}
- -t 0.24060269092161 -s 0 -d 1 -p rtProtoLS -e 100 -c 0 -i 66 -a 0 -x {0.2 1.1 -1 ------- null}
h -t 0.24060269092161 -s 0 -d 1 -p rtProtoLS -e 100 -c 0 -i 66 -a 0 -x {0.2 1.1 -1 ------- null}
+ -t 0.24060269092161 -s 0 -d 2 -p rtProtoLS -e 100 -c 0 -i 67 -a 0 -x {0.2 2.1 -1 ------- null}
- -t 0.24060269092161 -s 0 -d 2 -p rtProtoLS -e 100 -c 0 -i 67 -a 0 -x {0.2 2.1 -1 ------- null}
h -t 0.24060269092161 -s 0 -d 2 -p rtProtoLS -e 100 -c 0 -i 67 -a 0 -x {0.2 2.1 -1 ------- null}
r -t 0.24060269092161 -s 3 -d 1 -p rtProtoLS -e 100 -c 0 -i 63 -a 0 -x {3.1 1.1 -1 ------- null}
+ -t 0.24060269092161 -s 1 -d 3 -p rtProtoLS -e 20 -c 0 -i 68 -a 0 -x {1.1 3.1 -1 ------- null}
- -t 0.24060269092161 -s 1 -d 3 -p rtProtoLS -e 20 -c 0 -i 68 -a 0 -x {1.1 3.1 -1 ------- null}
h -t 0.24060269092161 -s 1 -d 3 -p rtProtoLS -e 20 -c 0 -i 68 -a 0 -x {1.1 3.1 -1 ------- null}
+ -t 0.24060269092161 -s 1 -d 0 -p rtProtoLS -e 100 -c 0 -i 69 -a 0 -x {1.1 0.2 -1 ------- null}
- -t 0.24060269092161 -s 1 -d 0 -p rtProtoLS -e 100 -c 0 -i 69 -a 0 -x {1.1 0.2 -1 ------- null}
h -t 0.24060269092161 -s 1 -d 0 -p rtProtoLS -e 100 -c 0 -i 69 -a 0 -x {1.1 0.2 -1 ------- null}
+ -t 0.24060269092161 -s 1 -d 2 -p rtProtoLS -e 100 -c 0 -i 70 -a 0 -x {1.1 2.1 -1 ------- null}
- -t 0.24060269092161 -s 1 -d 2 -p rtProtoLS -e 100 -c 0 -i 70 -a 0 -x {1.1 2.1 -1 ------- null}
h -t 0.24060269092161 -s 1 -d 2 -p rtProtoLS -e 100 -c 0 -i 70 -a 0 -x {1.1 2.1 -1 ------- null}
r -t 0.24060269092161 -s 3 -d 2 -p rtProtoLS -e 100 -c 0 -i 64 -a 0 -x {3.1 2.1 -1 ------- null}
+ -t 0.24060269092161 -s 2 -d 3 -p rtProtoLS -e 20 -c 0 -i 71 -a 0 -x {2.1 3.1 -1 ------- null}
- -t 0.24060269092161 -s 2 -d 3 -p rtProtoLS -e 20 -c 0 -i 71 -a 0 -x {2.1 3.1 -1 ------- null}
h -t 0.24060269092161 -s 2 -d 3 -p rtProtoLS -e 20 -c 0 -i 71 -a 0 -x {2.1 3.1 -1 ------- null}
+ -t 0.24060269092161 -s 2 -d 0 -p rtProtoLS -e 100 -c 0 -i 72 -a 0 -x {2.1 0.2 -1 ------- null}
- -t 0.24060269092161 -s 2 -d 0 -p rtProtoLS -e 100 -c 0 -i 72 -a 0 -x {2.1 0.2 -1 ------- null}
h -t 0.24060269092161 -s 2 -d 0 -p rtProtoLS -e 100 -c 0 -i 72 -a 0 -x {2.1 0.2 -1 ------- null}
+ -t 0.24060269092161 -s 2 -d 1 -p rtProtoLS -e 100 -c 0 -i 73 -a 0 -x {2.1 1.1 -1 ------- null}
- -t 0.24060269092161 -s 2 -d 1 -p rtProtoLS -e 100 -c 0 -i 73 -a 0 -x {2.1 1.1 -1 ------- null}
h -t 0.24060269092161 -s 2 -d 1 -p rtProtoLS -e 100 -c 0 -i 73 -a 0 -x {2.1 1.1 -1 ------- null}
r -t 0.25060429092161 -s 0 -d 3 -p rtProtoLS -e 20 -c 0 -i 65 -a 0 -x {0.2 3.1 -1 ------- null}
r -t 0.25060429092161 -s 1 -d 3 -p rtProtoLS -e 20 -c 0 -i 68 -a 0 -x {1.1 3.1 -1 ------- null}
r -t 0.25060429092161 -s 2 -d 3 -p rtProtoLS -e 20 -c 0 -i 71 -a 0 -x {2.1 3.1 -1 ------- null}
r -t 0.25061069092161 -s 0 -d 1 -p rtProtoLS -e 100 -c 0 -i 66 -a 0 -x {0.2 1.1 -1 ------- null}
+ -t 0.25061069092161 -s 1 -d 0 -p rtProtoLS -e 20 -c 0 -i 74 -a 0 -x {1.1 0.2 -1 ------- null}
- -t 0.25061069092161 -s 1 -d 0 -p rtProtoLS -e 20 -c 0 -i 74 -a 0 -x {1.1 0.2 -1 ------- null}
h -t 0.25061069092161 -s 1 -d 0 -p rtProtoLS -e 20 -c 0 -i 74 -a 0 -x {1.1 0.2 -1 ------- null}
r -t 0.25061069092161 -s 0 -d 2 -p rtProtoLS -e 100 -c 0 -i 67 -a 0 -x {0.2 2.1 -1 ------- null}
+ -t 0.25061069092161 -s 2 -d 0 -p rtProtoLS -e 20 -c 0 -i 75 -a 0 -x {2.1 0.2 -1 ------- null}
- -t 0.25061069092161 -s 2 -d 0 -p rtProtoLS -e 20 -c 0 -i 75 -a 0 -x {2.1 0.2 -1 ------- null}
h -t 0.25061069092161 -s 2 -d 0 -p rtProtoLS -e 20 -c 0 -i 75 -a 0 -x {2.1 0.2 -1 ------- null}