+ 1 0 2 tcp 40 ------- 0 0.0 3.0 0 0
- 1 0 2 tcp 40 ------- 0 0.0 3.0 0 0
r 1.020001 0 2 tcp 40 ------- 0 0.0 3.0 0 0
+ 1.020001 2 3 tcp 40 ------- 0 0.0 3.0 0 0
- 1.020001 2 3 tcp 40 ------- 0 0.0 3.0 0 0
r 1.040001 2 3 tcp 40 ------- 0 0.0 3.0 0 0
+ 1.040001 3 2 ack 40 ------- 0 3.0 0.0 0 1
- 1.040001 3 2 ack 40 ------- 0 3.0 0.0 0 1
r 1.060002 3 2 ack 40 ------- 0 3.0 0.0 0 1
+ 1.060002 2 0 ack 40 ------- 0 3.0 0.0 0 1
- 1.060002 2 0 ack 40 ------- 0 3.0 0.0 0 1
r 1.080003 2 0 ack 40 ------- 0 3.0 0.0 0 1
+ 1.080003 0 2 tcp 1040 ------- 0 0.0 3.0 1 2
- 1.080003 0 2 tcp 1040 ------- 0 0.0 3.0 1 2
+ 1.080003 0 2 tcp 1040 ------- 0 0.0 3.0 2 3
- 1.080019 0 2 tcp 1040 ------- 0 0.0 3.0 2 3
r 1.100019 0 2 tcp 1040 ------- 0 0.0 3.0 1 2
+ 1.100019 2 3 tcp 1040 ------- 0 0.0 3.0 1 2
- 1.100019 2 3 tcp 1040 ------- 0 0.0 3.0 1 2
r 1.100036 0 2 tcp 1040 ------- 0 0.0 3.0 2 3
+ 1.100036 2 3 tcp 1040 ------- 0 0.0 3.0 2 3
- 1.100036 2 3 tcp 1040 ------- 0 0.0 3.0 2 3
r 1.120036 2 3 tcp 1040 ------- 0 0.0 3.0 1 2
+ 1.120036 3 2 ack 40 ------- 0 3.0 0.0 1 4
- 1.120036 3 2 ack 40 ------- 0 3.0 0.0 1 4
r 1.120052 2 3 tcp 1040 ------- 0 0.0 3.0 2 3
+ 1.120052 3 2 ack 40 ------- 0 3.0 0.0 2 5
- 1.120052 3 2 ack 40 ------- 0 3.0 0.0 2 5
r 1.140036 3 2 ack 40 ------- 0 3.0 0.0 1 4
+ 1.140036 2 0 ack 40 ------- 0 3.0 0.0 1 4
- 1.140036 2 0 ack 40 ------- 0 3.0 0.0 1 4
r 1.140053 3 2 ack 40 ------- 0 3.0 0.0 2 5
+ 1.140053 2 0 ack 40 ------- 0 3.0 0.0 2 5
- 1.140053 2 0 ack 40 ------- 0 3.0 0.0 2 5
r 1.160037 2 0 ack 40 ------- 0 3.0 0.0 1 4
+ 1.160037 0 2 tcp 1040 ------- 0 0.0 3.0 3 6
- 1.160037 0 2 tcp 1040 ------- 0 0.0 3.0 3 6
+ 1.160037 0 2 tcp 1040 ------- 0 0.0 3.0 4 7
r 1.160054 2 0 ack 40 ------- 0 3.0 0.0 2 5
+ 1.160054 0 2 tcp 1040 ------- 0 0.0 3.0 5 8
+ 1.160054 0 2 tcp 1040 ------- 0 0.0 3.0 6 9
- 1.160054 0 2 tcp 1040 ------- 0 0.0 3.0 4 7
- 1.16007 0 2 tcp 1040 ------- 0 0.0 3.0 5 8
- 1.160087 0 2 tcp 1040 ------- 0 0.0 3.0 6 9
r 1.180054 0 2 tcp 1040 ------- 0 0.0 3.0 3 6
+ 1.180054 2 3 tcp 1040 ------- 0 0.0 3.0 3 6
- 1.180054 2 3 tcp 1040 ------- 0 0.0 3.0 3 6
r 1.18007 0 2 tcp 1040 ------- 0 0.0 3.0 4 7
+ 1.18007 2 3 tcp 1040 ------- 0 0.0 3.0 4 7
- 1.18007 2 3 tcp 1040 ------- 0 0.0 3.0 4 7
r 1.180087 0 2 tcp 1040 ------- 0 0.0 3.0 5 8
+ 1.180087 2 3 tcp 1040 ------- 0 0.0 3.0 5 8
- 1.180087 2 3 tcp 1040 ------- 0 0.0 3.0 5 8
r 1.180104 0 2 tcp 1040 ------- 0 0.0 3.0 6 9
+ 1.180104 2 3 tcp 1040 ------- 0 0.0 3.0 6 9
- 1.180104 2 3 tcp 1040 ------- 0 0.0 3.0 6 9
r 1.20007 2 3 tcp 1040 ------- 0 0.0 3.0 3 6
+ 1.20007 3 2 ack 40 ------- 0 3.0 0.0 3 10
- 1.20007 3 2 ack 40 ------- 0 3.0 0.0 3 10
r 1.200087 2 3 tcp 1040 ------- 0 0.0 3.0 4 7
+ 1.200087 3 2 ack 40 ------- 0 3.0 0.0 4 11
- 1.200087 3 2 ack 40 ------- 0 3.0 0.0 4 11
r 1.200104 2 3 tcp 1040 ------- 0 0.0 3.0 5 8
+ 1.200104 3 2 ack 40 ------- 0 3.0 0.0 5 12
- 1.200104 3 2 ack 40 ------- 0 3.0 0.0 5 12
r 1.20012 2 3 tcp 1040 ------- 0 0.0 3.0 6 9
+ 1.20012 3 2 ack 40 ------- 0 3.0 0.0 6 13
- 1.20012 3 2 ack 40 ------- 0 3.0 0.0 6 13
r 1.220071 3 2 ack 40 ------- 0 3.0 0.0 3 10
+ 1.220071 2 0 ack 40 ------- 0 3.0 0.0 3 10
- 1.220071 2 0 ack 40 ------- 0 3.0 0.0 3 10
r 1.220088 3 2 ack 40 ------- 0 3.0 0.0 4 11
+ 1.220088 2 0 ack 40 ------- 0 3.0 0.0 4 11
- 1.220088 2 0 ack 40 ------- 0 3.0 0.0 4 11
r 1.220104 3 2 ack 40 ------- 0 3.0 0.0 5 12
+ 1.220104 2 0 ack 40 ------- 0 3.0 0.0 5 12
- 1.220104 2 0 ack 40 ------- 0 3.0 0.0 5 12
r 1.220121 3 2 ack 40 ------- 0 3.0 0.0 6 13
+ 1.220121 2 0 ack 40 ------- 0 3.0 0.0 6 13
- 1.220121 2 0 ack 40 ------- 0 3.0 0.0 6 13
r 1.240072 2 0 ack 40 ------- 0 3.0 0.0 3 10
+ 1.240072 0 2 tcp 1040 ------- 0 0.0 3.0 7 14
- 1.240072 0 2 tcp 1040 ------- 0 0.0 3.0 7 14
+ 1.240072 0 2 tcp 1040 ------- 0 0.0 3.0 8 15
r 1.240088 2 0 ack 40 ------- 0 3.0 0.0 4 11
+ 1.240088 0 2 tcp 1040 ------- 0 0.0 3.0 9 16
+ 1.240088 0 2 tcp 1040 ------- 0 0.0 3.0 10 17
- 1.240088 0 2 tcp 1040 ------- 0 0.0 3.0 8 15
r 1.240105 2 0 ack 40 ------- 0 3.0 0.0 5 12
+ 1.240105 0 2 tcp 1040 ------- 0 0.0 3.0 11 18
+ 1.240105 0 2 tcp 1040 ------- 0 0.0 3.0 12 19
- 1.240105 0 2 tcp 1040 ------- 0 0.0 3.0 9 16
r 1.240122 2 0 ack 40 ------- 0 3.0 0.0 6 13
+ 1.240122 0 2 tcp 1040 ------- 0 0.0 3.0 13 20
+ 1.240122 0 2 tcp 1040 ------- 0 0.0 3.0 14 21
- 1.240122 0 2 tcp 1040 ------- 0 0.0 3.0 10 17
- 1.240138 0 2 tcp 1040 ------- 0 0.0 3.0 11 18
- 1.240155 0 2 tcp 1040 ------- 0 0.0 3.0 12 19
- 1.240172 0 2 tcp 1040 ------- 0 0.0 3.0 13 20
- 1.240188 0 2 tcp 1040 ------- 0 0.0 3.0 14 21
r 1.260088 0 2 tcp 1040 ------- 0 0.0 3.0 7 14
+ 1.260088 2 3 tcp 1040 ------- 0 0.0 3.0 7 14
- 1.260088 2 3 tcp 1040 ------- 0 0.0 3.0 7 14
r 1.260105 0 2 tcp 1040 ------- 0 0.0 3.0 8 15
+ 1.260105 2 3 tcp 1040 ------- 0 0.0 3.0 8 15
- 1.260105 2 3 tcp 1040 ------- 0 0.0 3.0 8 15
r 1.260122 0 2 tcp 1040 ------- 0 0.0 3.0 9 16
+ 1.260122 2 3 tcp 1040 ------- 0 0.0 3.0 9 16
- 1.260122 2 3 tcp 1040 ------- 0 0.0 3.0 9 16
r 1.260138 0 2 tcp 1040 ------- 0 0.0 3.0 10 17
+ 1.260138 2 3 tcp 1040 ------- 0 0.0 3.0 10 17
- 1.260138 2 3 tcp 1040 ------- 0 0.0 3.0 10 17
r 1.260155 0 2 tcp 1040 ------- 0 0.0 3.0 11 18
+ 1.260155 2 3 tcp 1040 ------- 0 0.0 3.0 11 18
- 1.260155 2 3 tcp 1040 ------- 0 0.0 3.0 11 18
r 1.260172 0 2 tcp 1040 ------- 0 0.0 3.0 12 19
+ 1.260172 2 3 tcp 1040 ------- 0 0.0 3.0 12 19
- 1.260172 2 3 tcp 1040 ------- 0 0.0 3.0 12 19
r 1.260188 0 2 tcp 1040 ------- 0 0.0 3.0 13 20
+ 1.260188 2 3 tcp 1040 ------- 0 0.0 3.0 13 20
- 1.260188 2 3 tcp 1040 ------- 0 0.0 3.0 13 20
r 1.260205 0 2 tcp 1040 ------- 0 0.0 3.0 14 21
+ 1.260205 2 3 tcp 1040 ------- 0 0.0 3.0 14 21
- 1.260205 2 3 tcp 1040 ------- 0 0.0 3.0 14 21
r 1.280105 2 3 tcp 1040 ------- 0 0.0 3.0 7 14
+ 1.280105 3 2 ack 40 ------- 0 3.0 0.0 7 22
- 1.280105 3 2 ack 40 ------- 0 3.0 0.0 7 22
r 1.280122 2 3 tcp 1040 ------- 0 0.0 3.0 8 15
+ 1.280122 3 2 ack 40 ------- 0 3.0 0.0 8 23
- 1.280122 3 2 ack 40 ------- 0 3.0 0.0 8 23
r 1.280138 2 3 tcp 1040 ------- 0 0.0 3.0 9 16
+ 1.280138 3 2 ack 40 ------- 0 3.0 0.0 9 24
- 1.280138 3 2 ack 40 ------- 0 3.0 0.0 9 24
r 1.280155 2 3 tcp 1040 ------- 0 0.0 3.0 10 17
+ 1.280155 3 2 ack 40 ------- 0 3.0 0.0 10 25
- 1.280155 3 2 ack 40 ------- 0 3.0 0.0 10 25
r 1.280172 2 3 tcp 1040 ------- 0 0.0 3.0 11 18
+ 1.280172 3 2 ack 40 ------- 0 3.0 0.0 11 26
- 1.280172 3 2 ack 40 ------- 0 3.0 0.0 11 26
r 1.280188 2 3 tcp 1040 ------- 0 0.0 3.0 12 19
+ 1.280188 3 2 ack 40 ------- 0 3.0 0.0 12 27
- 1.280188 3 2 ack 40 ------- 0 3.0 0.0 12 27
r 1.280205 2 3 tcp 1040 ------- 0 0.0 3.0 13 20
+ 1.280205 3 2 ack 40 ------- 0 3.0 0.0 13 28
- 1.280205 3 2 ack 40 ------- 0 3.0 0.0 13 28
r 1.280221 2 3 tcp 1040 ------- 0 0.0 3.0 14 21
+ 1.280221 3 2 ack 40 ------- 0 3.0 0.0 14 29
- 1.280221 3 2 ack 40 ------- 0 3.0 0.0 14 29
r 1.300106 3 2 ack 40 ------- 0 3.0 0.0 7 22
+ 1.300106 2 0 ack 40 ------- 0 3.0 0.0 7 22
- 1.300106 2 0 ack 40 ------- 0 3.0 0.0 7 22
r 1.300122 3 2 ack 40 ------- 0 3.0 0.0 8 23
+ 1.300122 2 0 ack 40 ------- 0 3.0 0.0 8 23
- 1.300122 2 0 ack 40 ------- 0 3.0 0.0 8 23
r 1.300139 3 2 ack 40 ------- 0 3.0 0.0 9 24
+ 1.300139 2 0 ack 40 ------- 0 3.0 0.0 9 24
- 1.300139 2 0 ack 40 ------- 0 3.0 0.0 9 24
r 1.300156 3 2 ack 40 ------- 0 3.0 0.0 10 25
+ 1.300156 2 0 ack 40 ------- 0 3.0 0.0 10 25
- 1.300156 2 0 ack 40 ------- 0 3.0 0.0 10 25
r 1.300172 3 2 ack 40 ------- 0 3.0 0.0 11 26
+ 1.300172 2 0 ack 40 ------- 0 3.0 0.0 11 26
- 1.300172 2 0 ack 40 ------- 0 3.0 0.0 11 26
r 1.300189 3 2 ack 40 ------- 0 3.0 0.0 12 27
+ 1.300189 2 0 ack 40 ------- 0 3.0 0.0 12 27
- 1.300189 2 0 ack 40 ------- 0 3.0 0.0 12 27
r 1.300205 3 2 ack 40 ------- 0 3.0 0.0 13 28
+ 1.300205 2 0 ack 40 ------- 0 3.0 0.0 13 28
- 1.300205 2 0 ack 40 ------- 0 3.0 0.0 13 28
r 1.300222 3 2 ack 40 ------- 0 3.0 0.0 14 29
+ 1.300222 2 0 ack 40 ------- 0 3.0 0.0 14 29
- 1.300222 2 0 ack 40 ------- 0 3.0 0.0 14 29
r 1.320106 2 0 ack 40 ------- 0 3.0 0.0 7 22
+ 1.320106 0 2 tcp 1040 ------- 0 0.0 3.0 15 30
- 1.320106 0 2 tcp 1040 ------- 0 0.0 3.0 15 30
+ 1.320106 0 2 tcp 1040 ------- 0 0.0 3.0 16 31
r 1.320123 2 0 ack 40 ------- 0 3.0 0.0 8 23
+ 1.320123 0 2 tcp 1040 ------- 0 0.0 3.0 17 32
+ 1.320123 0 2 tcp 1040 ------- 0 0.0 3.0 18 33
- 1.320123 0 2 tcp 1040 ------- 0 0.0 3.0 16 31
r 1.32014 2 0 ack 40 ------- 0 3.0 0.0 9 24
+ 1.32014 0 2 tcp 1040 ------- 0 0.0 3.0 19 34
+ 1.32014 0 2 tcp 1040 ------- 0 0.0 3.0 20 35
- 1.32014 0 2 tcp 1040 ------- 0 0.0 3.0 17 32
r 1.320156 2 0 ack 40 ------- 0 3.0 0.0 10 25
+ 1.320156 0 2 tcp 1040 ------- 0 0.0 3.0 21 36
+ 1.320156 0 2 tcp 1040 ------- 0 0.0 3.0 22 37
- 1.320156 0 2 tcp 1040 ------- 0 0.0 3.0 18 33
r 1.320173 2 0 ack 40 ------- 0 3.0 0.0 11 26
+ 1.320173 0 2 tcp 1040 ------- 0 0.0 3.0 23 38
+ 1.320173 0 2 tcp 1040 ------- 0 0.0 3.0 24 39
- 1.320173 0 2 tcp 1040 ------- 0 0.0 3.0 19 34
r 1.320189 2 0 ack 40 ------- 0 3.0 0.0 12 27
+ 1.320189 0 2 tcp 1040 ------- 0 0.0 3.0 25 40
+ 1.320189 0 2 tcp 1040 ------- 0 0.0 3.0 26 41
- 1.320189 0 2 tcp 1040 ------- 0 0.0 3.0 20 35
r 1.320206 2 0 ack 40 ------- 0 3.0 0.0 13 28
+ 1.320206 0 2 tcp 1040 ------- 0 0.0 3.0 27 42
+ 1.320206 0 2 tcp 1040 ------- 0 0.0 3.0 28 43
- 1.320206 0 2 tcp 1040 ------- 0 0.0 3.0 21 36
r 1.320223 2 0 ack 40 ------- 0 3.0 0.0 14 29
+ 1.320223 0 2 tcp 1040 ------- 0 0.0 3.0 29 44
+ 1.320223 0 2 tcp 1040 ------- 0 0.0 3.0 30 45
- 1.320223 0 2 tcp 1040 ------- 0 0.0 3.0 22 37
- 1.320239 0 2 tcp 1040 ------- 0 0.0 3.0 23 38
- 1.320256 0 2 tcp 1040 ------- 0 0.0 3.0 24 39
- 1.320273 0 2 tcp 1040 ------- 0 0.0 3.0 25 40
- 1.320289 0 2 tcp 1040 ------- 0 0.0 3.0 26 41
- 1.320306 0 2 tcp 1040 ------- 0 0.0 3.0 27 42
- 1.320323 0 2 tcp 1040 ------- 0 0.0 3.0 28 43
- 1.320339 0 2 tcp 1040 ------- 0 0.0 3.0 29 44
- 1.320356 0 2 tcp 1040 ------- 0 0.0 3.0 30 45
r 1.340123 0 2 tcp 1040 ------- 0 0.0 3.0 15 30
+ 1.340123 2 3 tcp 1040 ------- 0 0.0 3.0 15 30
- 1.340123 2 3 tcp 1040 ------- 0 0.0 3.0 15 30
r 1.34014 0 2 tcp 1040 ------- 0 0.0 3.0 16 31
+ 1.34014 2 3 tcp 1040 ------- 0 0.0 3.0 16 31
- 1.34014 2 3 tcp 1040 ------- 0 0.0 3.0 16 31
r 1.340156 0 2 tcp 1040 ------- 0 0.0 3.0 17 32
+ 1.340156 2 3 tcp 1040 ------- 0 0.0 3.0 17 32
- 1.340156 2 3 tcp 1040 ------- 0 0.0 3.0 17 32
r 1.340173 0 2 tcp 1040 ------- 0 0.0 3.0 18 33
+ 1.340173 2 3 tcp 1040 ------- 0 0.0 3.0 18 33
- 1.340173 2 3 tcp 1040 ------- 0 0.0 3.0 18 33
r 1.340189 0 2 tcp 1040 ------- 0 0.0 3.0 19 34
+ 1.340189 2 3 tcp 1040 ------- 0 0.0 3.0 19 34
- 1.340189 2 3 tcp 1040 ------- 0 0.0 3.0 19 34
r 1.340206 0 2 tcp 1040 ------- 0 0.0 3.0 20 35
+ 1.340206 2 3 tcp 1040 ------- 0 0.0 3.0 20 35
- 1.340206 2 3 tcp 1040 ------- 0 0.0 3.0 20 35
r 1.340223 0 2 tcp 1040 ------- 0 0.0 3.0 21 36
+ 1.340223 2 3 tcp 1040 ------- 0 0.0 3.0 21 36
- 1.340223 2 3 tcp 1040 ------- 0 0.0 3.0 21 36
r 1.340239 0 2 tcp 1040 ------- 0 0.0 3.0 22 37
+ 1.340239 2 3 tcp 1040 ------- 0 0.0 3.0 22 37
- 1.340239 2 3 tcp 1040 ------- 0 0.0 3.0 22 37
r 1.340256 0 2 tcp 1040 ------- 0 0.0 3.0 23 38
+ 1.340256 2 3 tcp 1040 ------- 0 0.0 3.0 23 38
- 1.340256 2 3 tcp 1040 ------- 0 0.0 3.0 23 38
r 1.340273 0 2 tcp 1040 ------- 0 0.0 3.0 24 39
+ 1.340273 2 3 tcp 1040 ------- 0 0.0 3.0 24 39
- 1.340273 2 3 tcp 1040 ------- 0 0.0 3.0 24 39
r 1.340289 0 2 tcp 1040 ------- 0 0.0 3.0 25 40
+ 1.340289 2 3 tcp 1040 ------- 0 0.0 3.0 25 40
- 1.340289 2 3 tcp 1040 ------- 0 0.0 3.0 25 40
r 1.340306 0 2 tcp 1040 ------- 0 0.0 3.0 26 41
+ 1.340306 2 3 tcp 1040 ------- 0 0.0 3.0 26 41
- 1.340306 2 3 tcp 1040 ------- 0 0.0 3.0 26 41
r 1.340323 0 2 tcp 1040 ------- 0 0.0 3.0 27 42
+ 1.340323 2 3 tcp 1040 ------- 0 0.0 3.0 27 42
- 1.340323 2 3 tcp 1040 ------- 0 0.0 3.0 27 42
r 1.340339 0 2 tcp 1040 ------- 0 0.0 3.0 28 43
+ 1.340339 2 3 tcp 1040 ------- 0 0.0 3.0 28 43
- 1.340339 2 3 tcp 1040 ------- 0 0.0 3.0 28 43
r 1.340356 0 2 tcp 1040 ------- 0 0.0 3.0 29 44
+ 1.340356 2 3 tcp 1040 ------- 0 0.0 3.0 29 44
- 1.340356 2 3 tcp 1040 ------- 0 0.0 3.0 29 44
r 1.340372 0 2 tcp 1040 ------- 0 0.0 3.0 30 45
+ 1.340372 2 3 tcp 1040 ------- 0 0.0 3.0 30 45
- 1.340372 2 3 tcp 1040 ------- 0 0.0 3.0 30 45
r 1.36014 2 3 tcp 1040 ------- 0 0.0 3.0 15 30
+ 1.36014 3 2 ack 40 ------- 0 3.0 0.0 15 46
- 1.36014 3 2 ack 40 ------- 0 3.0 0.0 15 46
r 1.360156 2 3 tcp 1040 ------- 0 0.0 3.0 16 31
+ 1.360156 3 2 ack 40 ------- 0 3.0 0.0 16 47
- 1.360156 3 2 ack 40 ------- 0 3.0 0.0 16 47
r 1.360173 2 3 tcp 1040 ------- 0 0.0 3.0 17 32
+ 1.360173 3 2 ack 40 ------- 0 3.0 0.0 17 48
- 1.360173 3 2 ack 40 ------- 0 3.0 0.0 17 48
r 1.360189 2 3 tcp 1040 ------- 0 0.0 3.0 18 33
+ 1.360189 3 2 ack 40 ------- 0 3.0 0.0 18 49
- 1.360189 3 2 ack 40 ------- 0 3.0 0.0 18 49
r 1.360206 2 3 tcp 1040 ------- 0 0.0 3.0 19 34
+ 1.360206 3 2 ack 40 ------- 0 3.0 0.0 19 50
- 1.360206 3 2 ack 40 ------- 0 3.0 0.0 19 50
r 1.360223 2 3 tcp 1040 ------- 0 0.0 3.0 20 35
+ 1.360223 3 2 ack 40 ------- 0 3.0 0.0 20 51
- 1.360223 3 2 ack 40 ------- 0 3.0 0.0 20 51
r 1.360239 2 3 tcp 1040 ------- 0 0.0 3.0 21 36
+ 1.360239 3 2 ack 40 ------- 0 3.0 0.0 21 52
- 1.360239 3 2 ack 40 ------- 0 3.0 0.0 21 52
r 1.360256 2 3 tcp 1040 ------- 0 0.0 3.0 22 37
+ 1.360256 3 2 ack 40 ------- 0 3.0 0.0 22 53
- 1.360256 3 2 ack 40 ------- 0 3.0 0.0 22 53
r 1.360273 2 3 tcp 1040 ------- 0 0.0 3.0 23 38
+ 1.360273 3 2 ack 40 ------- 0 3.0 0.0 23 54
- 1.360273 3 2 ack 40 ------- 0 3.0 0.0 23 54
r 1.360289 2 3 tcp 1040 ------- 0 0.0 3.0 24 39
+ 1.360289 3 2 ack 40 ------- 0 3.0 0.0 24 55
- 1.360289 3 2 ack 40 ------- 0 3.0 0.0 24 55
r 1.360306 2 3 tcp 1040 ------- 0 0.0 3.0 25 40
+ 1.360306 3 2 ack 40 ------- 0 3.0 0.0 25 56
- 1.360306 3 2 ack 40 ------- 0 3.0 0.0 25 56
r 1.360323 2 3 tcp 1040 ------- 0 0.0 3.0 26 41
+ 1.360323 3 2 ack 40 ------- 0 3.0 0.0 26 57
- 1.360323 3 2 ack 40 ------- 0 3.0 0.0 26 57
r 1.360339 2 3 tcp 1040 ------- 0 0.0 3.0 27 42
+ 1.360339 3 2 ack 40 ------- 0 3.0 0.0 27 58
- 1.360339 3 2 ack 40 ------- 0 3.0 0.0 27 58
r 1.360356 2 3 tcp 1040 ------- 0 0.0 3.0 28 43
+ 1.360356 3 2 ack 40 ------- 0 3.0 0.0 28 59
- 1.360356 3 2 ack 40 ------- 0 3.0 0.0 28 59
r 1.360372 2 3 tcp 1040 ------- 0 0.0 3.0 29 44
+ 1.360372 3 2 ack 40 ------- 0 3.0 0.0 29 60
- 1.360372 3 2 ack 40 ------- 0 3.0 0.0 29 60
r 1.360389 2 3 tcp 1040 ------- 0 0.0 3.0 30 45
+ 1.360389 3 2 ack 40 ------- 0 3.0 0.0 30 61
- 1.360389 3 2 ack 40 ------- 0 3.0 0.0 30 61
r 1.38014 3 2 ack 40 ------- 0 3.0 0.0 15 46
+ 1.38014 2 0 ack 40 ------- 0 3.0 0.0 15 46
- 1.38014 2 0 ack 40 ------- 0 3.0 0.0 15 46
r 1.380157 3 2 ack 40 ------- 0 3.0 0.0 16 47
+ 1.380157 2 0 ack 40 ------- 0 3.0 0.0 16 47
- 1.380157 2 0 ack 40 ------- 0 3.0 0.0 16 47
r 1.380173 3 2 ack 40 ------- 0 3.0 0.0 17 48
+ 1.380173 2 0 ack 40 ------- 0 3.0 0.0 17 48
- 1.380173 2 0 ack 40 ------- 0 3.0 0.0 17 48
r 1.38019 3 2 ack 40 ------- 0 3.0 0.0 18 49
+ 1.38019 2 0 ack 40 ------- 0 3.0 0.0 18 49
- 1.38019 2 0 ack 40 ------- 0 3.0 0.0 18 49
r 1.380207 3 2 ack 40 ------- 0 3.0 0.0 19 50
+ 1.380207 2 0 ack 40 ------- 0 3.0 0.0 19 50
- 1.380207 2 0 ack 40 ------- 0 3.0 0.0 19 50
r 1.380223 3 2 ack 40 ------- 0 3.0 0.0 20 51
+ 1.380223 2 0 ack 40 ------- 0 3.0 0.0 20 51
- 1.380223 2 0 ack 40 ------- 0 3.0 0.0 20 51
r 1.38024 3 2 ack 40 ------- 0 3.0 0.0 21 52
+ 1.38024 2 0 ack 40 ------- 0 3.0 0.0 21 52
- 1.38024 2 0 ack 40 ------- 0 3.0 0.0 21 52
r 1.380257 3 2 ack 40 ------- 0 3.0 0.0 22 53
+ 1.380257 2 0 ack 40 ------- 0 3.0 0.0 22 53
- 1.380257 2 0 ack 40 ------- 0 3.0 0.0 22 53
r 1.380273 3 2 ack 40 ------- 0 3.0 0.0 23 54
+ 1.380273 2 0 ack 40 ------- 0 3.0 0.0 23 54
- 1.380273 2 0 ack 40 ------- 0 3.0 0.0 23 54
r 1.38029 3 2 ack 40 ------- 0 3.0 0.0 24 55
+ 1.38029 2 0 ack 40 ------- 0 3.0 0.0 24 55
- 1.38029 2 0 ack 40 ------- 0 3.0 0.0 24 55
r 1.380307 3 2 ack 40 ------- 0 3.0 0.0 25 56
+ 1.380307 2 0 ack 40 ------- 0 3.0 0.0 25 56
- 1.380307 2 0 ack 40 ------- 0 3.0 0.0 25 56
r 1.380323 3 2 ack 40 ------- 0 3.0 0.0 26 57
+ 1.380323 2 0 ack 40 ------- 0 3.0 0.0 26 57
- 1.380323 2 0 ack 40 ------- 0 3.0 0.0 26 57
r 1.38034 3 2 ack 40 ------- 0 3.0 0.0 27 58
+ 1.38034 2 0 ack 40 ------- 0 3.0 0.0 27 58
- 1.38034 2 0 ack 40 ------- 0 3.0 0.0 27 58
r 1.380356 3 2 ack 40 ------- 0 3.0 0.0 28 59
+ 1.380356 2 0 ack 40 ------- 0 3.0 0.0 28 59
- 1.380356 2 0 ack 40 ------- 0 3.0 0.0 28 59
r 1.380373 3 2 ack 40 ------- 0 3.0 0.0 29 60
+ 1.380373 2 0 ack 40 ------- 0 3.0 0.0 29 60
- 1.380373 2 0 ack 40 ------- 0 3.0 0.0 29 60
r 1.38039 3 2 ack 40 ------- 0 3.0 0.0 30 61
+ 1.38039 2 0 ack 40 ------- 0 3.0 0.0 30 61
- 1.38039 2 0 ack 40 ------- 0 3.0 0.0 30 61
r 1.400141 2 0 ack 40 ------- 0 3.0 0.0 15 46
+ 1.400141 0 2 tcp 1040 ------- 0 0.0 3.0 31 62
- 1.400141 0 2 tcp 1040 ------- 0 0.0 3.0 31 62
+ 1.400141 0 2 tcp 1040 ------- 0 0.0 3.0 32 63
r 1.400157 2 0 ack 40 ------- 0 3.0 0.0 16 47
+ 1.400157 0 2 tcp 1040 ------- 0 0.0 3.0 33 64
+ 1.400157 0 2 tcp 1040 ------- 0 0.0 3.0 34 65
- 1.400157 0 2 tcp 1040 ------- 0 0.0 3.0 32 63
r 1.400174 2 0 ack 40 ------- 0 3.0 0.0 17 48
+ 1.400174 0 2 tcp 1040 ------- 0 0.0 3.0 35 66
+ 1.400174 0 2 tcp 1040 ------- 0 0.0 3.0 36 67
- 1.400174 0 2 tcp 1040 ------- 0 0.0 3.0 33 64
r 1.400191 2 0 ack 40 ------- 0 3.0 0.0 18 49
+ 1.400191 0 2 tcp 1040 ------- 0 0.0 3.0 37 68
+ 1.400191 0 2 tcp 1040 ------- 0 0.0 3.0 38 69
- 1.400191 0 2 tcp 1040 ------- 0 0.0 3.0 34 65
r 1.400207 2 0 ack 40 ------- 0 3.0 0.0 19 50
+ 1.400207 0 2 tcp 1040 ------- 0 0.0 3.0 39 70
- 1.400207 0 2 tcp 1040 ------- 0 0.0 3.0 35 66
r 1.400224 2 0 ack 40 ------- 0 3.0 0.0 20 51
+ 1.400224 0 2 tcp 1040 ------- 0 0.0 3.0 40 71
- 1.400224 0 2 tcp 1040 ------- 0 0.0 3.0 36 67
r 1.400241 2 0 ack 40 ------- 0 3.0 0.0 21 52
+ 1.400241 0 2 tcp 1040 ------- 0 0.0 3.0 41 72
- 1.400241 0 2 tcp 1040 ------- 0 0.0 3.0 37 68
r 1.400257 2 0 ack 40 ------- 0 3.0 0.0 22 53
+ 1.400257 0 2 tcp 1040 ------- 0 0.0 3.0 42 73
- 1.400257 0 2 tcp 1040 ------- 0 0.0 3.0 38 69
r 1.400274 2 0 ack 40 ------- 0 3.0 0.0 23 54
+ 1.400274 0 2 tcp 1040 ------- 0 0.0 3.0 43 74
- 1.400274 0 2 tcp 1040 ------- 0 0.0 3.0 39 70
r 1.400291 2 0 ack 40 ------- 0 3.0 0.0 24 55
+ 1.400291 0 2 tcp 1040 ------- 0 0.0 3.0 44 75
- 1.400291 0 2 tcp 1040 ------- 0 0.0 3.0 40 71
r 1.400307 2 0 ack 40 ------- 0 3.0 0.0 25 56
+ 1.400307 0 2 tcp 1040 ------- 0 0.0 3.0 45 76
- 1.400307 0 2 tcp 1040 ------- 0 0.0 3.0 41 72
r 1.400324 2 0 ack 40 ------- 0 3.0 0.0 26 57
+ 1.400324 0 2 tcp 1040 ------- 0 0.0 3.0 46 77
- 1.400324 0 2 tcp 1040 ------- 0 0.0 3.0 42 73
r 1.40034 2 0 ack 40 ------- 0 3.0 0.0 27 58
+ 1.40034 0 2 tcp 1040 ------- 0 0.0 3.0 47 78
- 1.40034 0 2 tcp 1040 ------- 0 0.0 3.0 43 74
r 1.400357 2 0 ack 40 ------- 0 3.0 0.0 28 59
+ 1.400357 0 2 tcp 1040 ------- 0 0.0 3.0 48 79
- 1.400357 0 2 tcp 1040 ------- 0 0.0 3.0 44 75
r 1.400374 2 0 ack 40 ------- 0 3.0 0.0 29 60
+ 1.400374 0 2 tcp 1040 ------- 0 0.0 3.0 49 80
- 1.400374 0 2 tcp 1040 ------- 0 0.0 3.0 45 76
r 1.40039 2 0 ack 40 ------- 0 3.0 0.0 30 61
+ 1.40039 0 2 tcp 1040 ------- 0 0.0 3.0 50 81
- 1.40039 0 2 tcp 1040 ------- 0 0.0 3.0 46 77
- 1.400407 0 2 tcp 1040 ------- 0 0.0 3.0 47 78
- 1.400424 0 2 tcp 1040 ------- 0 0.0 3.0 48 79
- 1.40044 0 2 tcp 1040 ------- 0 0.0 3.0 49 80
- 1.400457 0 2 tcp 1040 ------- 0 0.0 3.0 50 81
r 1.420157 0 2 tcp 1040 ------- 0 0.0 3.0 31 62
+ 1.420157 2 3 tcp 1040 ------- 0 0.0 3.0 31 62
- 1.420157 2 3 tcp 1040 ------- 0 0.0 3.0 31 62
r 1.420174 0 2 tcp 1040 ------- 0 0.0 3.0 32 63
+ 1.420174 2 3 tcp 1040 ------- 0 0.0 3.0 32 63
- 1.420174 2 3 tcp 1040 ------- 0 0.0 3.0 32 63
r 1.420191 0 2 tcp 1040 ------- 0 0.0 3.0 33 64
+ 1.420191 2 3 tcp 1040 ------- 0 0.0 3.0 33 64
- 1.420191 2 3 tcp 1040 ------- 0 0.0 3.0 33 64
r 1.420207 0 2 tcp 1040 ------- 0 0.0 3.0 34 65
+ 1.420207 2 3 tcp 1040 ------- 0 0.0 3.0 34 65
- 1.420207 2 3 tcp 1040 ------- 0 0.0 3.0 34 65
r 1.420224 0 2 tcp 1040 ------- 0 0.0 3.0 35 66
+ 1.420224 2 3 tcp 1040 ------- 0 0.0 3.0 35 66
- 1.420224 2 3 tcp 1040 ------- 0 0.0 3.0 35 66
r 1.420241 0 2 tcp 1040 ------- 0 0.0 3.0 36 67
+ 1.420241 2 3 tcp 1040 ------- 0 0.0 3.0 36 67
- 1.420241 2 3 tcp 1040 ------- 0 0.0 3.0 36 67
r 1.420257 0 2 tcp 1040 ------- 0 0.0 3.0 37 68
+ 1.420257 2 3 tcp 1040 ------- 0 0.0 3.0 37 68
- 1.420257 2 3 tcp 1040 ------- 0 0.0 3.0 37 68
r 1.420274 0 2 tcp 1040 ------- 0 0.0 3.0 38 69
+ 1.420274 2 3 tcp 1040 ------- 0 0.0 3.0 38 69
- 1.420274 2 3 tcp 1040 ------- 0 0.0 3.0 38 69
r 1.420291 0 2 tcp 1040 ------- 0 0.0 3.0 39 70
+ 1.420291 2 3 tcp 1040 ------- 0 0.0 3.0 39 70
- 1.420291 2 3 tcp 1040 ------- 0 0.0 3.0 39 70
r 1.420307 0 2 tcp 1040 ------- 0 0.0 3.0 40 71
+ 1.420307 2 3 tcp 1040 ------- 0 0.0 3.0 40 71
- 1.420307 2 3 tcp 1040 ------- 0 0.0 3.0 40 71
r 1.420324 0 2 tcp 1040 ------- 0 0.0 3.0 41 72
+ 1.420324 2 3 tcp 1040 ------- 0 0.0 3.0 41 72
- 1.420324 2 3 tcp 1040 ------- 0 0.0 3.0 41 72
r 1.42034 0 2 tcp 1040 ------- 0 0.0 3.0 42 73
+ 1.42034 2 3 tcp 1040 ------- 0 0.0 3.0 42 73
- 1.42034 2 3 tcp 1040 ------- 0 0.0 3.0 42 73
r 1.420357 0 2 tcp 1040 ------- 0 0.0 3.0 43 74
+ 1.420357 2 3 tcp 1040 ------- 0 0.0 3.0 43 74
- 1.420357 2 3 tcp 1040 ------- 0 0.0 3.0 43 74
r 1.420374 0 2 tcp 1040 ------- 0 0.0 3.0 44 75
+ 1.420374 2 3 tcp 1040 ------- 0 0.0 3.0 44 75
- 1.420374 2 3 tcp 1040 ------- 0 0.0 3.0 44 75
r 1.42039 0 2 tcp 1040 ------- 0 0.0 3.0 45 76
+ 1.42039 2 3 tcp 1040 ------- 0 0.0 3.0 45 76
- 1.42039 2 3 tcp 1040 ------- 0 0.0 3.0 45 76
r 1.420407 0 2 tcp 1040 ------- 0 0.0 3.0 46 77
+ 1.420407 2 3 tcp 1040 ------- 0 0.0 3.0 46 77
- 1.420407 2 3 tcp 1040 ------- 0 0.0 3.0 46 77
r 1.420424 0 2 tcp 1040 ------- 0 0.0 3.0 47 78
+ 1.420424 2 3 tcp 1040 ------- 0 0.0 3.0 47 78
- 1.420424 2 3 tcp 1040 ------- 0 0.0 3.0 47 78
r 1.42044 0 2 tcp 1040 ------- 0 0.0 3.0 48 79
+ 1.42044 2 3 tcp 1040 ------- 0 0.0 3.0 48 79
- 1.42044 2 3 tcp 1040 ------- 0 0.0 3.0 48 79
r 1.420457 0 2 tcp 1040 ------- 0 0.0 3.0 49 80
+ 1.420457 2 3 tcp 1040 ------- 0 0.0 3.0 49 80
- 1.420457 2 3 tcp 1040 ------- 0 0.0 3.0 49 80
r 1.420474 0 2 tcp 1040 ------- 0 0.0 3.0 50 81
+ 1.420474 2 3 tcp 1040 ------- 0 0.0 3.0 50 81
- 1.420474 2 3 tcp 1040 ------- 0 0.0 3.0 50 81
r 1.440174 2 3 tcp 1040 ------- 0 0.0 3.0 31 62
+ 1.440174 3 2 ack 40 ------- 0 3.0 0.0 31 82
- 1.440174 3 2 ack 40 ------- 0 3.0 0.0 31 82
r 1.440191 2 3 tcp 1040 ------- 0 0.0 3.0 32 63
+ 1.440191 3 2 ack 40 ------- 0 3.0 0.0 32 83
- 1.440191 3 2 ack 40 ------- 0 3.0 0.0 32 83
r 1.440207 2 3 tcp 1040 ------- 0 0.0 3.0 33 64
+ 1.440207 3 2 ack 40 ------- 0 3.0 0.0 33 84
- 1.440207 3 2 ack 40 ------- 0 3.0 0.0 33 84
r 1.440224 2 3 tcp 1040 ------- 0 0.0 3.0 34 65
+ 1.440224 3 2 ack 40 ------- 0 3.0 0.0 34 85
- 1.440224 3 2 ack 40 ------- 0 3.0 0.0 34 85
r 1.440241 2 3 tcp 1040 ------- 0 0.0 3.0 35 66
+ 1.440241 3 2 ack 40 ------- 0 3.0 0.0 35 86
- 1.440241 3 2 ack 40 ------- 0 3.0 0.0 35 86
r 1.440257 2 3 tcp 1040 ------- 0 0.0 3.0 36 67
+ 1.440257 3 2 ack 40 ------- 0 3.0 0.0 36 87
- 1.440257 3 2 ack 40 ------- 0 3.0 0.0 36 87
r 1.440274 2 3 tcp 1040 ------- 0 0.0 3.0 37 68
+ 1.440274 3 2 ack 40 ------- 0 3.0 0.0 37 88
- 1.440274 3 2 ack 40 ------- 0 3.0 0.0 37 88
r 1.440291 2 3 tcp 1040 ------- 0 0.0 3.0 38 69
+ 1.440291 3 2 ack 40 ------- 0 3.0 0.0 38 89
- 1.440291 3 2 ack 40 ------- 0 3.0 0.0 38 89
r 1.440307 2 3 tcp 1040 ------- 0 0.0 3.0 39 70
+ 1.440307 3 2 ack 40 ------- 0 3.0 0.0 39 90
- 1.440307 3 2 ack 40 ------- 0 3.0 0.0 39 90
r 1.440324 2 3 tcp 1040 ------- 0 0.0 3.0 40 71
+ 1.440324 3 2 ack 40 ------- 0 3.0 0.0 40 91
- 1.440324 3 2 ack 40 ------- 0 3.0 0.0 40 91
r 1.44034 2 3 tcp 1040 ------- 0 0.0 3.0 41 72
+ 1.44034 3 2 ack 40 ------- 0 3.0 0.0 41 92
- 1.44034 3 2 ack 40 ------- 0 3.0 0.0 41 92
r 1.440357 2 3 tcp 1040 ------- 0 0.0 3.0 42 73
+ 1.440357 3 2 ack 40 ------- 0 3.0 0.0 42 93
- 1.440357 3 2 ack 40 ------- 0 3.0 0.0 42 93
r 1.440374 2 3 tcp 1040 ------- 0 0.0 3.0 43 74
+ 1.440374 3 2 ack 40 ------- 0 3.0 0.0 43 94
- 1.440374 3 2 ack 40 ------- 0 3.0 0.0 43 94
r 1.44039 2 3 tcp 1040 ------- 0 0.0 3.0 44 75
+ 1.44039 3 2 ack 40 ------- 0 3.0 0.0 44 95
- 1.44039 3 2 ack 40 ------- 0 3.0 0.0 44 95
r 1.440407 2 3 tcp 1040 ------- 0 0.0 3.0 45 76
+ 1.440407 3 2 ack 40 ------- 0 3.0 0.0 45 96
- 1.440407 3 2 ack 40 ------- 0 3.0 0.0 45 96
r 1.440424 2 3 tcp 1040 ------- 0 0.0 3.0 46 77
+ 1.440424 3 2 ack 40 ------- 0 3.0 0.0 46 97
- 1.440424 3 2 ack 40 ------- 0 3.0 0.0 46 97
r 1.44044 2 3 tcp 1040 ------- 0 0.0 3.0 47 78
+ 1.44044 3 2 ack 40 ------- 0 3.0 0.0 47 98
- 1.44044 3 2 ack 40 ------- 0 3.0 0.0 47 98
r 1.440457 2 3 tcp 1040 ------- 0 0.0 3.0 48 79
+ 1.440457 3 2 ack 40 ------- 0 3.0 0.0 48 99
- 1.440457 3 2 ack 40 ------- 0 3.0 0.0 48 99
r 1.440474 2 3 tcp 1040 ------- 0 0.0 3.0 49 80
+ 1.440474 3 2 ack 40 ------- 0 3.0 0.0 49 100
- 1.440474 3 2 ack 40 ------- 0 3.0 0.0 49 100
r 1.44049 2 3 tcp 1040 ------- 0 0.0 3.0 50 81
+ 1.44049 3 2 ack 40 ------- 0 3.0 0.0 50 101
- 1.44049 3 2 ack 40 ------- 0 3.0 0.0 50 101
r 1.460175 3 2 ack 40 ------- 0 3.0 0.0 31 82
+ 1.460175 2 0 ack 40 ------- 0 3.0 0.0 31 82
- 1.460175 2 0 ack 40 ------- 0 3.0 0.0 31 82
r 1.460191 3 2 ack 40 ------- 0 3.0 0.0 32 83
+ 1.460191 2 0 ack 40 ------- 0 3.0 0.0 32 83
- 1.460191 2 0 ack 40 ------- 0 3.0 0.0 32 83
r 1.460208 3 2 ack 40 ------- 0 3.0 0.0 33 84
+ 1.460208 2 0 ack 40 ------- 0 3.0 0.0 33 84
- 1.460208 2 0 ack 40 ------- 0 3.0 0.0 33 84
r 1.460225 3 2 ack 40 ------- 0 3.0 0.0 34 85
+ 1.460225 2 0 ack 40 ------- 0 3.0 0.0 34 85
- 1.460225 2 0 ack 40 ------- 0 3.0 0.0 34 85
r 1.460241 3 2 ack 40 ------- 0 3.0 0.0 35 86
+ 1.460241 2 0 ack 40 ------- 0 3.0 0.0 35 86
- 1.460241 2 0 ack 40 ------- 0 3.0 0.0 35 86
r 1.460258 3 2 ack 40 ------- 0 3.0 0.0 36 87
+ 1.460258 2 0 ack 40 ------- 0 3.0 0.0 36 87
- 1.460258 2 0 ack 40 ------- 0 3.0 0.0 36 87
r 1.460275 3 2 ack 40 ------- 0 3.0 0.0 37 88
+ 1.460275 2 0 ack 40 ------- 0 3.0 0.0 37 88
- 1.460275 2 0 ack 40 ------- 0 3.0 0.0 37 88
r 1.460291 3 2 ack 40 ------- 0 3.0 0.0 38 89
+ 1.460291 2 0 ack 40 ------- 0 3.0 0.0 38 89
- 1.460291 2 0 ack 40 ------- 0 3.0 0.0 38 89
r 1.460308 3 2 ack 40 ------- 0 3.0 0.0 39 90
+ 1.460308 2 0 ack 40 ------- 0 3.0 0.0 39 90
- 1.460308 2 0 ack 40 ------- 0 3.0 0.0 39 90
r 1.460324 3 2 ack 40 ------- 0 3.0 0.0 40 91
+ 1.460324 2 0 ack 40 ------- 0 3.0 0.0 40 91
- 1.460324 2 0 ack 40 ------- 0 3.0 0.0 40 91
r 1.460341 3 2 ack 40 ------- 0 3.0 0.0 41 92
+ 1.460341 2 0 ack 40 ------- 0 3.0 0.0 41 92
- 1.460341 2 0 ack 40 ------- 0 3.0 0.0 41 92
r 1.460358 3 2 ack 40 ------- 0 3.0 0.0 42 93
+ 1.460358 2 0 ack 40 ------- 0 3.0 0.0 42 93
- 1.460358 2 0 ack 40 ------- 0 3.0 0.0 42 93
r 1.460374 3 2 ack 40 ------- 0 3.0 0.0 43 94
+ 1.460374 2 0 ack 40 ------- 0 3.0 0.0 43 94
- 1.460374 2 0 ack 40 ------- 0 3.0 0.0 43 94
r 1.460391 3 2 ack 40 ------- 0 3.0 0.0 44 95
+ 1.460391 2 0 ack 40 ------- 0 3.0 0.0 44 95
- 1.460391 2 0 ack 40 ------- 0 3.0 0.0 44 95
r 1.460408 3 2 ack 40 ------- 0 3.0 0.0 45 96
+ 1.460408 2 0 ack 40 ------- 0 3.0 0.0 45 96
- 1.460408 2 0 ack 40 ------- 0 3.0 0.0 45 96
r 1.460424 3 2 ack 40 ------- 0 3.0 0.0 46 97
+ 1.460424 2 0 ack 40 ------- 0 3.0 0.0 46 97
- 1.460424 2 0 ack 40 ------- 0 3.0 0.0 46 97
r 1.460441 3 2 ack 40 ------- 0 3.0 0.0 47 98
+ 1.460441 2 0 ack 40 ------- 0 3.0 0.0 47 98
- 1.460441 2 0 ack 40 ------- 0 3.0 0.0 47 98
r 1.460458 3 2 ack 40 ------- 0 3.0 0.0 48 99
+ 1.460458 2 0 ack 40 ------- 0 3.0 0.0 48 99
- 1.460458 2 0 ack 40 ------- 0 3.0 0.0 48 99
r 1.460474 3 2 ack 40 ------- 0 3.0 0.0 49 100
+ 1.460474 2 0 ack 40 ------- 0 3.0 0.0 49 100
- 1.460474 2 0 ack 40 ------- 0 3.0 0.0 49 100
r 1.460491 3 2 ack 40 ------- 0 3.0 0.0 50 101
+ 1.460491 2 0 ack 40 ------- 0 3.0 0.0 50 101
- 1.460491 2 0 ack 40 ------- 0 3.0 0.0 50 101
r 1.480175 2 0 ack 40 ------- 0 3.0 0.0 31 82
+ 1.480175 0 2 tcp 1040 ------- 0 0.0 3.0 51 102
- 1.480175 0 2 tcp 1040 ------- 0 0.0 3.0 51 102
r 1.480192 2 0 ack 40 ------- 0 3.0 0.0 32 83
+ 1.480192 0 2 tcp 1040 ------- 0 0.0 3.0 52 103
- 1.480192 0 2 tcp 1040 ------- 0 0.0 3.0 52 103
r 1.480209 2 0 ack 40 ------- 0 3.0 0.0 33 84
+ 1.480209 0 2 tcp 1040 ------- 0 0.0 3.0 53 104
- 1.480209 0 2 tcp 1040 ------- 0 0.0 3.0 53 104
r 1.480225 2 0 ack 40 ------- 0 3.0 0.0 34 85
+ 1.480225 0 2 tcp 1040 ------- 0 0.0 3.0 54 105
- 1.480225 0 2 tcp 1040 ------- 0 0.0 3.0 54 105
r 1.480242 2 0 ack 40 ------- 0 3.0 0.0 35 86
+ 1.480242 0 2 tcp 1040 ------- 0 0.0 3.0 55 106
- 1.480242 0 2 tcp 1040 ------- 0 0.0 3.0 55 106
r 1.480259 2 0 ack 40 ------- 0 3.0 0.0 36 87
+ 1.480259 0 2 tcp 1040 ------- 0 0.0 3.0 56 107
- 1.480259 0 2 tcp 1040 ------- 0 0.0 3.0 56 107
r 1.480275 2 0 ack 40 ------- 0 3.0 0.0 37 88
+ 1.480275 0 2 tcp 1040 ------- 0 0.0 3.0 57 108
- 1.480275 0 2 tcp 1040 ------- 0 0.0 3.0 57 108
r 1.480292 2 0 ack 40 ------- 0 3.0 0.0 38 89
+ 1.480292 0 2 tcp 1040 ------- 0 0.0 3.0 58 109
- 1.480292 0 2 tcp 1040 ------- 0 0.0 3.0 58 109
r 1.480308 2 0 ack 40 ------- 0 3.0 0.0 39 90
+ 1.480308 0 2 tcp 1040 ------- 0 0.0 3.0 59 110
- 1.480308 0 2 tcp 1040 ------- 0 0.0 3.0 59 110
r 1.480325 2 0 ack 40 ------- 0 3.0 0.0 40 91
+ 1.480325 0 2 tcp 1040 ------- 0 0.0 3.0 60 111
- 1.480325 0 2 tcp 1040 ------- 0 0.0 3.0 60 111
r 1.480342 2 0 ack 40 ------- 0 3.0 0.0 41 92
+ 1.480342 0 2 tcp 1040 ------- 0 0.0 3.0 61 112
- 1.480342 0 2 tcp 1040 ------- 0 0.0 3.0 61 112
r 1.480358 2 0 ack 40 ------- 0 3.0 0.0 42 93
+ 1.480358 0 2 tcp 1040 ------- 0 0.0 3.0 62 113
- 1.480358 0 2 tcp 1040 ------- 0 0.0 3.0 62 113
r 1.480375 2 0 ack 40 ------- 0 3.0 0.0 43 94
+ 1.480375 0 2 tcp 1040 ------- 0 0.0 3.0 63 114
- 1.480375 0 2 tcp 1040 ------- 0 0.0 3.0 63 114
r 1.480392 2 0 ack 40 ------- 0 3.0 0.0 44 95
+ 1.480392 0 2 tcp 1040 ------- 0 0.0 3.0 64 115
- 1.480392 0 2 tcp 1040 ------- 0 0.0 3.0 64 115
r 1.480408 2 0 ack 40 ------- 0 3.0 0.0 45 96
+ 1.480408 0 2 tcp 1040 ------- 0 0.0 3.0 65 116
- 1.480408 0 2 tcp 1040 ------- 0 0.0 3.0 65 116
r 1.480425 2 0 ack 40 ------- 0 3.0 0.0 46 97
+ 1.480425 0 2 tcp 1040 ------- 0 0.0 3.0 66 117
- 1.480425 0 2 tcp 1040 ------- 0 0.0 3.0 66 117
r 1.480442 2 0 ack 40 ------- 0 3.0 0.0 47 98
+ 1.480442 0 2 tcp 1040 ------- 0 0.0 3.0 67 118