h 0.1 0 4 tcp 40 ------- 0 0.0 3.0 0 0
+ 0.11 0 4 tcp 40 ------- 0 0.0 3.0 0 0
- 0.11 0 4 tcp 40 ------- 0 0.0 3.0 0 0
r 0.120055 4 3 tcp 40 ------- 0 0.0 3.0 0 0
h 0.120055 3 4 ack 40 ------- 0 3.0 0.0 0 1
+ 0.130055 3 4 ack 40 ------- 0 3.0 0.0 0 1
- 0.130055 3 4 ack 40 ------- 0 3.0 0.0 0 1
r 0.14011 4 0 ack 40 ------- 0 3.0 0.0 0 1
h 0.14011 0 4 tcp 1040 ------- 0 0.0 3.0 1 2
h 0.14011 0 4 tcp 1040 ------- 0 0.0 3.0 2 3
+ 0.15011 0 4 tcp 1040 ------- 0 0.0 3.0 1 2
- 0.15011 0 4 tcp 1040 ------- 0 0.0 3.0 1 2
+ 0.15011 0 4 tcp 1040 ------- 0 0.0 3.0 2 3
- 0.150963 0 4 tcp 1040 ------- 0 0.0 3.0 2 3
r 0.160958 4 3 tcp 1040 ------- 0 0.0 3.0 1 2
h 0.160958 3 4 ack 40 ------- 0 3.0 0.0 1 4
r 0.16181 4 3 tcp 1040 ------- 0 0.0 3.0 2 3
h 0.16181 3 4 ack 40 ------- 0 3.0 0.0 2 5
+ 0.170958 3 4 ack 40 ------- 0 3.0 0.0 1 4
- 0.170958 3 4 ack 40 ------- 0 3.0 0.0 1 4
+ 0.17181 3 4 ack 40 ------- 0 3.0 0.0 2 5
- 0.17181 3 4 ack 40 ------- 0 3.0 0.0 2 5
r 0.181013 4 0 ack 40 ------- 0 3.0 0.0 1 4
h 0.181013 0 4 tcp 1040 ------- 0 0.0 3.0 3 6
h 0.181013 0 4 tcp 1040 ------- 0 0.0 3.0 4 7
r 0.181866 4 0 ack 40 ------- 0 3.0 0.0 2 5
h 0.181866 0 4 tcp 1040 ------- 0 0.0 3.0 5 8
h 0.181866 0 4 tcp 1040 ------- 0 0.0 3.0 6 9
+ 0.191013 0 4 tcp 1040 ------- 0 0.0 3.0 3 6
- 0.191013 0 4 tcp 1040 ------- 0 0.0 3.0 3 6
+ 0.191013 0 4 tcp 1040 ------- 0 0.0 3.0 4 7
+ 0.191866 0 4 tcp 1040 ------- 0 0.0 3.0 5 8
+ 0.191866 0 4 tcp 1040 ------- 0 0.0 3.0 6 9
- 0.191866 0 4 tcp 1040 ------- 0 0.0 3.0 4 7
- 0.192718 0 4 tcp 1040 ------- 0 0.0 3.0 5 8
- 0.193571 0 4 tcp 1040 ------- 0 0.0 3.0 6 9
r 0.20186 4 3 tcp 1040 ------- 0 0.0 3.0 3 6
h 0.20186 3 4 ack 40 ------- 0 3.0 0.0 3 10
r 0.202713 4 3 tcp 1040 ------- 0 0.0 3.0 4 7
h 0.202713 3 4 ack 40 ------- 0 3.0 0.0 4 11
r 0.203566 4 3 tcp 1040 ------- 0 0.0 3.0 5 8
h 0.203566 3 4 ack 40 ------- 0 3.0 0.0 5 12
r 0.204418 4 3 tcp 1040 ------- 0 0.0 3.0 6 9
h 0.204418 3 4 ack 40 ------- 0 3.0 0.0 6 13
+ 0.21186 3 4 ack 40 ------- 0 3.0 0.0 3 10
- 0.21186 3 4 ack 40 ------- 0 3.0 0.0 3 10
+ 0.212713 3 4 ack 40 ------- 0 3.0 0.0 4 11
- 0.212713 3 4 ack 40 ------- 0 3.0 0.0 4 11
+ 0.213566 3 4 ack 40 ------- 0 3.0 0.0 5 12
- 0.213566 3 4 ack 40 ------- 0 3.0 0.0 5 12
+ 0.214418 3 4 ack 40 ------- 0 3.0 0.0 6 13
- 0.214418 3 4 ack 40 ------- 0 3.0 0.0 6 13
r 0.221915 4 0 ack 40 ------- 0 3.0 0.0 3 10
h 0.221915 0 4 tcp 1040 ------- 0 0.0 3.0 7 14
h 0.221915 0 4 tcp 1040 ------- 0 0.0 3.0 8 15
r 0.222768 4 0 ack 40 ------- 0 3.0 0.0 4 11
h 0.222768 0 4 tcp 1040 ------- 0 0.0 3.0 9 16
h 0.222768 0 4 tcp 1040 ------- 0 0.0 3.0 10 17
r 0.223621 4 0 ack 40 ------- 0 3.0 0.0 5 12
h 0.223621 0 4 tcp 1040 ------- 0 0.0 3.0 11 18
h 0.223621 0 4 tcp 1040 ------- 0 0.0 3.0 12 19
r 0.224474 4 0 ack 40 ------- 0 3.0 0.0 6 13
h 0.224474 0 4 tcp 1040 ------- 0 0.0 3.0 13 20
h 0.224474 0 4 tcp 1040 ------- 0 0.0 3.0 14 21
+ 0.231915 0 4 tcp 1040 ------- 0 0.0 3.0 7 14
- 0.231915 0 4 tcp 1040 ------- 0 0.0 3.0 7 14
+ 0.231915 0 4 tcp 1040 ------- 0 0.0 3.0 8 15
+ 0.232768 0 4 tcp 1040 ------- 0 0.0 3.0 9 16
+ 0.232768 0 4 tcp 1040 ------- 0 0.0 3.0 10 17
- 0.232768 0 4 tcp 1040 ------- 0 0.0 3.0 8 15
+ 0.233621 0 4 tcp 1040 ------- 0 0.0 3.0 11 18
+ 0.233621 0 4 tcp 1040 ------- 0 0.0 3.0 12 19
- 0.233621 0 4 tcp 1040 ------- 0 0.0 3.0 9 16
+ 0.234474 0 4 tcp 1040 ------- 0 0.0 3.0 13 20
+ 0.234474 0 4 tcp 1040 ------- 0 0.0 3.0 14 21
- 0.234474 0 4 tcp 1040 ------- 0 0.0 3.0 10 17
- 0.235326 0 4 tcp 1040 ------- 0 0.0 3.0 11 18
- 0.236179 0 4 tcp 1040 ------- 0 0.0 3.0 12 19
- 0.237032 0 4 tcp 1040 ------- 0 0.0 3.0 13 20
- 0.237885 0 4 tcp 1040 ------- 0 0.0 3.0 14 21
r 0.242762 4 3 tcp 1040 ------- 0 0.0 3.0 7 14
h 0.242762 3 4 ack 40 ------- 0 3.0 0.0 7 22
r 0.243615 4 3 tcp 1040 ------- 0 0.0 3.0 8 15
h 0.243615 3 4 ack 40 ------- 0 3.0 0.0 8 23
r 0.244468 4 3 tcp 1040 ------- 0 0.0 3.0 9 16
h 0.244468 3 4 ack 40 ------- 0 3.0 0.0 9 24
r 0.245321 4 3 tcp 1040 ------- 0 0.0 3.0 10 17
h 0.245321 3 4 ack 40 ------- 0 3.0 0.0 10 25
r 0.246174 4 3 tcp 1040 ------- 0 0.0 3.0 11 18
h 0.246174 3 4 ack 40 ------- 0 3.0 0.0 11 26
r 0.247026 4 3 tcp 1040 ------- 0 0.0 3.0 12 19
h 0.247026 3 4 ack 40 ------- 0 3.0 0.0 12 27
r 0.247879 4 3 tcp 1040 ------- 0 0.0 3.0 13 20
h 0.247879 3 4 ack 40 ------- 0 3.0 0.0 13 28
r 0.248732 4 3 tcp 1040 ------- 0 0.0 3.0 14 21
h 0.248732 3 4 ack 40 ------- 0 3.0 0.0 14 29
+ 0.252762 3 4 ack 40 ------- 0 3.0 0.0 7 22
- 0.252762 3 4 ack 40 ------- 0 3.0 0.0 7 22
+ 0.253615 3 4 ack 40 ------- 0 3.0 0.0 8 23
- 0.253615 3 4 ack 40 ------- 0 3.0 0.0 8 23
+ 0.254468 3 4 ack 40 ------- 0 3.0 0.0 9 24
- 0.254468 3 4 ack 40 ------- 0 3.0 0.0 9 24
+ 0.255321 3 4 ack 40 ------- 0 3.0 0.0 10 25
- 0.255321 3 4 ack 40 ------- 0 3.0 0.0 10 25
+ 0.256174 3 4 ack 40 ------- 0 3.0 0.0 11 26
- 0.256174 3 4 ack 40 ------- 0 3.0 0.0 11 26
+ 0.257026 3 4 ack 40 ------- 0 3.0 0.0 12 27
- 0.257026 3 4 ack 40 ------- 0 3.0 0.0 12 27
+ 0.257879 3 4 ack 40 ------- 0 3.0 0.0 13 28
- 0.257879 3 4 ack 40 ------- 0 3.0 0.0 13 28
+ 0.258732 3 4 ack 40 ------- 0 3.0 0.0 14 29
- 0.258732 3 4 ack 40 ------- 0 3.0 0.0 14 29
r 0.262818 4 0 ack 40 ------- 0 3.0 0.0 7 22
h 0.262818 0 4 tcp 1040 ------- 0 0.0 3.0 15 30
h 0.262818 0 4 tcp 1040 ------- 0 0.0 3.0 16 31
r 0.26367 4 0 ack 40 ------- 0 3.0 0.0 8 23
h 0.26367 0 4 tcp 1040 ------- 0 0.0 3.0 17 32
h 0.26367 0 4 tcp 1040 ------- 0 0.0 3.0 18 33
r 0.264523 4 0 ack 40 ------- 0 3.0 0.0 9 24
h 0.264523 0 4 tcp 1040 ------- 0 0.0 3.0 19 34
h 0.264523 0 4 tcp 1040 ------- 0 0.0 3.0 20 35
r 0.265376 4 0 ack 40 ------- 0 3.0 0.0 10 25
h 0.265376 0 4 tcp 1040 ------- 0 0.0 3.0 21 36
h 0.265376 0 4 tcp 1040 ------- 0 0.0 3.0 22 37
r 0.266229 4 0 ack 40 ------- 0 3.0 0.0 11 26
h 0.266229 0 4 tcp 1040 ------- 0 0.0 3.0 23 38
h 0.266229 0 4 tcp 1040 ------- 0 0.0 3.0 24 39
r 0.267082 4 0 ack 40 ------- 0 3.0 0.0 12 27
h 0.267082 0 4 tcp 1040 ------- 0 0.0 3.0 25 40
h 0.267082 0 4 tcp 1040 ------- 0 0.0 3.0 26 41
r 0.267934 4 0 ack 40 ------- 0 3.0 0.0 13 28
h 0.267934 0 4 tcp 1040 ------- 0 0.0 3.0 27 42
h 0.267934 0 4 tcp 1040 ------- 0 0.0 3.0 28 43
r 0.268787 4 0 ack 40 ------- 0 3.0 0.0 14 29
h 0.268787 0 4 tcp 1040 ------- 0 0.0 3.0 29 44
h 0.268787 0 4 tcp 1040 ------- 0 0.0 3.0 30 45
+ 0.272818 0 4 tcp 1040 ------- 0 0.0 3.0 15 30
- 0.272818 0 4 tcp 1040 ------- 0 0.0 3.0 15 30
+ 0.272818 0 4 tcp 1040 ------- 0 0.0 3.0 16 31
+ 0.27367 0 4 tcp 1040 ------- 0 0.0 3.0 17 32
+ 0.27367 0 4 tcp 1040 ------- 0 0.0 3.0 18 33
- 0.27367 0 4 tcp 1040 ------- 0 0.0 3.0 16 31
+ 0.274523 0 4 tcp 1040 ------- 0 0.0 3.0 19 34
+ 0.274523 0 4 tcp 1040 ------- 0 0.0 3.0 20 35
- 0.274523 0 4 tcp 1040 ------- 0 0.0 3.0 17 32
+ 0.275376 0 4 tcp 1040 ------- 0 0.0 3.0 21 36
+ 0.275376 0 4 tcp 1040 ------- 0 0.0 3.0 22 37
- 0.275376 0 4 tcp 1040 ------- 0 0.0 3.0 18 33
+ 0.276229 0 4 tcp 1040 ------- 0 0.0 3.0 23 38
+ 0.276229 0 4 tcp 1040 ------- 0 0.0 3.0 24 39
- 0.276229 0 4 tcp 1040 ------- 0 0.0 3.0 19 34
+ 0.277082 0 4 tcp 1040 ------- 0 0.0 3.0 25 40
+ 0.277082 0 4 tcp 1040 ------- 0 0.0 3.0 26 41
- 0.277082 0 4 tcp 1040 ------- 0 0.0 3.0 20 35
+ 0.277934 0 4 tcp 1040 ------- 0 0.0 3.0 27 42
+ 0.277934 0 4 tcp 1040 ------- 0 0.0 3.0 28 43
- 0.277934 0 4 tcp 1040 ------- 0 0.0 3.0 21 36
+ 0.278787 0 4 tcp 1040 ------- 0 0.0 3.0 29 44
+ 0.278787 0 4 tcp 1040 ------- 0 0.0 3.0 30 45
- 0.278787 0 4 tcp 1040 ------- 0 0.0 3.0 22 37
- 0.27964 0 4 tcp 1040 ------- 0 0.0 3.0 23 38
- 0.280493 0 4 tcp 1040 ------- 0 0.0 3.0 24 39
- 0.281346 0 4 tcp 1040 ------- 0 0.0 3.0 25 40
- 0.282198 0 4 tcp 1040 ------- 0 0.0 3.0 26 41
- 0.283051 0 4 tcp 1040 ------- 0 0.0 3.0 27 42
r 0.283665 4 3 tcp 1040 ------- 0 0.0 3.0 15 30
h 0.283665 3 4 ack 40 ------- 0 3.0 0.0 15 46
- 0.283904 0 4 tcp 1040 ------- 0 0.0 3.0 28 43
r 0.284518 4 3 tcp 1040 ------- 0 0.0 3.0 16 31
h 0.284518 3 4 ack 40 ------- 0 3.0 0.0 16 47
- 0.284757 0 4 tcp 1040 ------- 0 0.0 3.0 29 44
r 0.28537 4 3 tcp 1040 ------- 0 0.0 3.0 17 32
h 0.28537 3 4 ack 40 ------- 0 3.0 0.0 17 48
- 0.28561 0 4 tcp 1040 ------- 0 0.0 3.0 30 45
r 0.286223 4 3 tcp 1040 ------- 0 0.0 3.0 18 33
h 0.286223 3 4 ack 40 ------- 0 3.0 0.0 18 49
r 0.287076 4 3 tcp 1040 ------- 0 0.0 3.0 19 34
h 0.287076 3 4 ack 40 ------- 0 3.0 0.0 19 50
r 0.287929 4 3 tcp 1040 ------- 0 0.0 3.0 20 35
h 0.287929 3 4 ack 40 ------- 0 3.0 0.0 20 51
r 0.288782 4 3 tcp 1040 ------- 0 0.0 3.0 21 36
h 0.288782 3 4 ack 40 ------- 0 3.0 0.0 21 52
r 0.289634 4 3 tcp 1040 ------- 0 0.0 3.0 22 37
h 0.289634 3 4 ack 40 ------- 0 3.0 0.0 22 53
r 0.290487 4 3 tcp 1040 ------- 0 0.0 3.0 23 38
h 0.290487 3 4 ack 40 ------- 0 3.0 0.0 23 54
r 0.29134 4 3 tcp 1040 ------- 0 0.0 3.0 24 39
h 0.29134 3 4 ack 40 ------- 0 3.0 0.0 24 55
r 0.292193 4 3 tcp 1040 ------- 0 0.0 3.0 25 40
h 0.292193 3 4 ack 40 ------- 0 3.0 0.0 25 56
r 0.293046 4 3 tcp 1040 ------- 0 0.0 3.0 26 41
h 0.293046 3 4 ack 40 ------- 0 3.0 0.0 26 57
+ 0.293665 3 4 ack 40 ------- 0 3.0 0.0 15 46
- 0.293665 3 4 ack 40 ------- 0 3.0 0.0 15 46
r 0.293898 4 3 tcp 1040 ------- 0 0.0 3.0 27 42
h 0.293898 3 4 ack 40 ------- 0 3.0 0.0 27 58
+ 0.294518 3 4 ack 40 ------- 0 3.0 0.0 16 47
- 0.294518 3 4 ack 40 ------- 0 3.0 0.0 16 47
r 0.294751 4 3 tcp 1040 ------- 0 0.0 3.0 28 43
h 0.294751 3 4 ack 40 ------- 0 3.0 0.0 28 59
+ 0.29537 3 4 ack 40 ------- 0 3.0 0.0 17 48
- 0.29537 3 4 ack 40 ------- 0 3.0 0.0 17 48
r 0.295604 4 3 tcp 1040 ------- 0 0.0 3.0 29 44
h 0.295604 3 4 ack 40 ------- 0 3.0 0.0 29 60
+ 0.296223 3 4 ack 40 ------- 0 3.0 0.0 18 49
- 0.296223 3 4 ack 40 ------- 0 3.0 0.0 18 49
r 0.296457 4 3 tcp 1040 ------- 0 0.0 3.0 30 45
h 0.296457 3 4 ack 40 ------- 0 3.0 0.0 30 61
+ 0.297076 3 4 ack 40 ------- 0 3.0 0.0 19 50
- 0.297076 3 4 ack 40 ------- 0 3.0 0.0 19 50
+ 0.297929 3 4 ack 40 ------- 0 3.0 0.0 20 51
- 0.297929 3 4 ack 40 ------- 0 3.0 0.0 20 51
+ 0.298782 3 4 ack 40 ------- 0 3.0 0.0 21 52
- 0.298782 3 4 ack 40 ------- 0 3.0 0.0 21 52
+ 0.299634 3 4 ack 40 ------- 0 3.0 0.0 22 53
- 0.299634 3 4 ack 40 ------- 0 3.0 0.0 22 53
+ 0.300487 3 4 ack 40 ------- 0 3.0 0.0 23 54
- 0.300487 3 4 ack 40 ------- 0 3.0 0.0 23 54
+ 0.30134 3 4 ack 40 ------- 0 3.0 0.0 24 55
- 0.30134 3 4 ack 40 ------- 0 3.0 0.0 24 55
+ 0.302193 3 4 ack 40 ------- 0 3.0 0.0 25 56
- 0.302193 3 4 ack 40 ------- 0 3.0 0.0 25 56
+ 0.303046 3 4 ack 40 ------- 0 3.0 0.0 26 57
- 0.303046 3 4 ack 40 ------- 0 3.0 0.0 26 57
r 0.30372 4 0 ack 40 ------- 0 3.0 0.0 15 46
h 0.30372 0 4 tcp 1040 ------- 0 0.0 3.0 31 62
h 0.30372 0 4 tcp 1040 ------- 0 0.0 3.0 32 63
+ 0.303898 3 4 ack 40 ------- 0 3.0 0.0 27 58
- 0.303898 3 4 ack 40 ------- 0 3.0 0.0 27 58
r 0.304573 4 0 ack 40 ------- 0 3.0 0.0 16 47
h 0.304573 0 4 tcp 1040 ------- 0 0.0 3.0 33 64
h 0.304573 0 4 tcp 1040 ------- 0 0.0 3.0 34 65
+ 0.304751 3 4 ack 40 ------- 0 3.0 0.0 28 59
- 0.304751 3 4 ack 40 ------- 0 3.0 0.0 28 59
r 0.305426 4 0 ack 40 ------- 0 3.0 0.0 17 48
h 0.305426 0 4 tcp 1040 ------- 0 0.0 3.0 35 66
h 0.305426 0 4 tcp 1040 ------- 0 0.0 3.0 36 67
+ 0.305604 3 4 ack 40 ------- 0 3.0 0.0 29 60
- 0.305604 3 4 ack 40 ------- 0 3.0 0.0 29 60
r 0.306278 4 0 ack 40 ------- 0 3.0 0.0 18 49
h 0.306278 0 4 tcp 1040 ------- 0 0.0 3.0 37 68
h 0.306278 0 4 tcp 1040 ------- 0 0.0 3.0 38 69
+ 0.306457 3 4 ack 40 ------- 0 3.0 0.0 30 61
- 0.306457 3 4 ack 40 ------- 0 3.0 0.0 30 61
r 0.307131 4 0 ack 40 ------- 0 3.0 0.0 19 50
h 0.307131 0 4 tcp 1040 ------- 0 0.0 3.0 39 70
r 0.307984 4 0 ack 40 ------- 0 3.0 0.0 20 51
h 0.307984 0 4 tcp 1040 ------- 0 0.0 3.0 40 71
r 0.308837 4 0 ack 40 ------- 0 3.0 0.0 21 52
h 0.308837 0 4 tcp 1040 ------- 0 0.0 3.0 41 72
r 0.30969 4 0 ack 40 ------- 0 3.0 0.0 22 53
h 0.30969 0 4 tcp 1040 ------- 0 0.0 3.0 42 73
r 0.310542 4 0 ack 40 ------- 0 3.0 0.0 23 54
h 0.310542 0 4 tcp 1040 ------- 0 0.0 3.0 43 74
r 0.311395 4 0 ack 40 ------- 0 3.0 0.0 24 55
h 0.311395 0 4 tcp 1040 ------- 0 0.0 3.0 44 75
r 0.312248 4 0 ack 40 ------- 0 3.0 0.0 25 56
h 0.312248 0 4 tcp 1040 ------- 0 0.0 3.0 45 76
r 0.313101 4 0 ack 40 ------- 0 3.0 0.0 26 57
h 0.313101 0 4 tcp 1040 ------- 0 0.0 3.0 46 77
+ 0.31372 0 4 tcp 1040 ------- 0 0.0 3.0 31 62
- 0.31372 0 4 tcp 1040 ------- 0 0.0 3.0 31 62
+ 0.31372 0 4 tcp 1040 ------- 0 0.0 3.0 32 63
r 0.313954 4 0 ack 40 ------- 0 3.0 0.0 27 58
h 0.313954 0 4 tcp 1040 ------- 0 0.0 3.0 47 78
+ 0.314573 0 4 tcp 1040 ------- 0 0.0 3.0 33 64
+ 0.314573 0 4 tcp 1040 ------- 0 0.0 3.0 34 65
- 0.314573 0 4 tcp 1040 ------- 0 0.0 3.0 32 63
r 0.314806 4 0 ack 40 ------- 0 3.0 0.0 28 59
h 0.314806 0 4 tcp 1040 ------- 0 0.0 3.0 48 79
+ 0.315426 0 4 tcp 1040 ------- 0 0.0 3.0 35 66
+ 0.315426 0 4 tcp 1040 ------- 0 0.0 3.0 36 67
- 0.315426 0 4 tcp 1040 ------- 0 0.0 3.0 33 64
r 0.315659 4 0 ack 40 ------- 0 3.0 0.0 29 60
h 0.315659 0 4 tcp 1040 ------- 0 0.0 3.0 49 80
+ 0.316278 0 4 tcp 1040 ------- 0 0.0 3.0 37 68
+ 0.316278 0 4 tcp 1040 ------- 0 0.0 3.0 38 69
- 0.316278 0 4 tcp 1040 ------- 0 0.0 3.0 34 65
r 0.316512 4 0 ack 40 ------- 0 3.0 0.0 30 61
h 0.316512 0 4 tcp 1040 ------- 0 0.0 3.0 50 81
+ 0.317131 0 4 tcp 1040 ------- 0 0.0 3.0 39 70
- 0.317131 0 4 tcp 1040 ------- 0 0.0 3.0 35 66
+ 0.317984 0 4 tcp 1040 ------- 0 0.0 3.0 40 71
- 0.317984 0 4 tcp 1040 ------- 0 0.0 3.0 36 67
+ 0.318837 0 4 tcp 1040 ------- 0 0.0 3.0 41 72
- 0.318837 0 4 tcp 1040 ------- 0 0.0 3.0 37 68
+ 0.31969 0 4 tcp 1040 ------- 0 0.0 3.0 42 73
- 0.31969 0 4 tcp 1040 ------- 0 0.0 3.0 38 69
+ 0.320542 0 4 tcp 1040 ------- 0 0.0 3.0 43 74
- 0.320542 0 4 tcp 1040 ------- 0 0.0 3.0 39 70
+ 0.321395 0 4 tcp 1040 ------- 0 0.0 3.0 44 75
- 0.321395 0 4 tcp 1040 ------- 0 0.0 3.0 40 71
+ 0.322248 0 4 tcp 1040 ------- 0 0.0 3.0 45 76
- 0.322248 0 4 tcp 1040 ------- 0 0.0 3.0 41 72
+ 0.323101 0 4 tcp 1040 ------- 0 0.0 3.0 46 77
- 0.323101 0 4 tcp 1040 ------- 0 0.0 3.0 42 73
+ 0.323954 0 4 tcp 1040 ------- 0 0.0 3.0 47 78
- 0.323954 0 4 tcp 1040 ------- 0 0.0 3.0 43 74
r 0.324567 4 3 tcp 1040 ------- 0 0.0 3.0 31 62
h 0.324567 3 4 ack 40 ------- 0 3.0 0.0 31 82
+ 0.324806 0 4 tcp 1040 ------- 0 0.0 3.0 48 79
- 0.324806 0 4 tcp 1040 ------- 0 0.0 3.0 44 75
r 0.32542 4 3 tcp 1040 ------- 0 0.0 3.0 32 63
h 0.32542 3 4 ack 40 ------- 0 3.0 0.0 32 83
+ 0.325659 0 4 tcp 1040 ------- 0 0.0 3.0 49 80
- 0.325659 0 4 tcp 1040 ------- 0 0.0 3.0 45 76
r 0.326273 4 3 tcp 1040 ------- 0 0.0 3.0 33 64
h 0.326273 3 4 ack 40 ------- 0 3.0 0.0 33 84
+ 0.326512 0 4 tcp 1040 ------- 0 0.0 3.0 50 81
- 0.326512 0 4 tcp 1040 ------- 0 0.0 3.0 46 77
r 0.327126 4 3 tcp 1040 ------- 0 0.0 3.0 34 65
h 0.327126 3 4 ack 40 ------- 0 3.0 0.0 34 85
- 0.327365 0 4 tcp 1040 ------- 0 0.0 3.0 47 78
r 0.327978 4 3 tcp 1040 ------- 0 0.0 3.0 35 66
h 0.327978 3 4 ack 40 ------- 0 3.0 0.0 35 86
- 0.328218 0 4 tcp 1040 ------- 0 0.0 3.0 48 79
r 0.328831 4 3 tcp 1040 ------- 0 0.0 3.0 36 67
h 0.328831 3 4 ack 40 ------- 0 3.0 0.0 36 87
- 0.32907 0 4 tcp 1040 ------- 0 0.0 3.0 49 80
r 0.329684 4 3 tcp 1040 ------- 0 0.0 3.0 37 68
h 0.329684 3 4 ack 40 ------- 0 3.0 0.0 37 88
- 0.329923 0 4 tcp 1040 ------- 0 0.0 3.0 50 81
r 0.330537 4 3 tcp 1040 ------- 0 0.0 3.0 38 69
h 0.330537 3 4 ack 40 ------- 0 3.0 0.0 38 89
r 0.33139 4 3 tcp 1040 ------- 0 0.0 3.0 39 70
h 0.33139 3 4 ack 40 ------- 0 3.0 0.0 39 90
r 0.332242 4 3 tcp 1040 ------- 0 0.0 3.0 40 71
h 0.332242 3 4 ack 40 ------- 0 3.0 0.0 40 91
r 0.333095 4 3 tcp 1040 ------- 0 0.0 3.0 41 72
h 0.333095 3 4 ack 40 ------- 0 3.0 0.0 41 92
r 0.333948 4 3 tcp 1040 ------- 0 0.0 3.0 42 73
h 0.333948 3 4 ack 40 ------- 0 3.0 0.0 42 93
+ 0.334567 3 4 ack 40 ------- 0 3.0 0.0 31 82
- 0.334567 3 4 ack 40 ------- 0 3.0 0.0 31 82
r 0.334801 4 3 tcp 1040 ------- 0 0.0 3.0 43 74
h 0.334801 3 4 ack 40 ------- 0 3.0 0.0 43 94
+ 0.33542 3 4 ack 40 ------- 0 3.0 0.0 32 83
- 0.33542 3 4 ack 40 ------- 0 3.0 0.0 32 83
r 0.335654 4 3 tcp 1040 ------- 0 0.0 3.0 44 75
h 0.335654 3 4 ack 40 ------- 0 3.0 0.0 44 95
+ 0.336273 3 4 ack 40 ------- 0 3.0 0.0 33 84
- 0.336273 3 4 ack 40 ------- 0 3.0 0.0 33 84
r 0.336506 4 3 tcp 1040 ------- 0 0.0 3.0 45 76
h 0.336506 3 4 ack 40 ------- 0 3.0 0.0 45 96
+ 0.337126 3 4 ack 40 ------- 0 3.0 0.0 34 85
- 0.337126 3 4 ack 40 ------- 0 3.0 0.0 34 85
r 0.337359 4 3 tcp 1040 ------- 0 0.0 3.0 46 77
h 0.337359 3 4 ack 40 ------- 0 3.0 0.0 46 97
+ 0.337978 3 4 ack 40 ------- 0 3.0 0.0 35 86
- 0.337978 3 4 ack 40 ------- 0 3.0 0.0 35 86
r 0.338212 4 3 tcp 1040 ------- 0 0.0 3.0 47 78
h 0.338212 3 4 ack 40 ------- 0 3.0 0.0 47 98
+ 0.338831 3 4 ack 40 ------- 0 3.0 0.0 36 87
- 0.338831 3 4 ack 40 ------- 0 3.0 0.0 36 87
r 0.339065 4 3 tcp 1040 ------- 0 0.0 3.0 48 79
h 0.339065 3 4 ack 40 ------- 0 3.0 0.0 48 99
+ 0.339684 3 4 ack 40 ------- 0 3.0 0.0 37 88
- 0.339684 3 4 ack 40 ------- 0 3.0 0.0 37 88
r 0.339918 4 3 tcp 1040 ------- 0 0.0 3.0 49 80
h 0.339918 3 4 ack 40 ------- 0 3.0 0.0 49 100
+ 0.340537 3 4 ack 40 ------- 0 3.0 0.0 38 89
- 0.340537 3 4 ack 40 ------- 0 3.0 0.0 38 89
r 0.34077 4 3 tcp 1040 ------- 0 0.0 3.0 50 81
h 0.34077 3 4 ack 40 ------- 0 3.0 0.0 50 101
+ 0.34139 3 4 ack 40 ------- 0 3.0 0.0 39 90
- 0.34139 3 4 ack 40 ------- 0 3.0 0.0 39 90
+ 0.342242 3 4 ack 40 ------- 0 3.0 0.0 40 91
- 0.342242 3 4 ack 40 ------- 0 3.0 0.0 40 91
+ 0.343095 3 4 ack 40 ------- 0 3.0 0.0 41 92
- 0.343095 3 4 ack 40 ------- 0 3.0 0.0 41 92
+ 0.343948 3 4 ack 40 ------- 0 3.0 0.0 42 93
- 0.343948 3 4 ack 40 ------- 0 3.0 0.0 42 93
r 0.344622 4 0 ack 40 ------- 0 3.0 0.0 31 82
h 0.344622 0 4 tcp 1040 ------- 0 0.0 3.0 51 102
+ 0.344801 3 4 ack 40 ------- 0 3.0 0.0 43 94
- 0.344801 3 4 ack 40 ------- 0 3.0 0.0 43 94
r 0.345475 4 0 ack 40 ------- 0 3.0 0.0 32 83
h 0.345475 0 4 tcp 1040 ------- 0 0.0 3.0 52 103
+ 0.345654 3 4 ack 40 ------- 0 3.0 0.0 44 95
- 0.345654 3 4 ack 40 ------- 0 3.0 0.0 44 95
r 0.346328 4 0 ack 40 ------- 0 3.0 0.0 33 84
h 0.346328 0 4 tcp 1040 ------- 0 0.0 3.0 53 104
+ 0.346506 3 4 ack 40 ------- 0 3.0 0.0 45 96
- 0.346506 3 4 ack 40 ------- 0 3.0 0.0 45 96
r 0.347181 4 0 ack 40 ------- 0 3.0 0.0 34 85
h 0.347181 0 4 tcp 1040 ------- 0 0.0 3.0 54 105
+ 0.347359 3 4 ack 40 ------- 0 3.0 0.0 46 97
- 0.347359 3 4 ack 40 ------- 0 3.0 0.0 46 97
r 0.348034 4 0 ack 40 ------- 0 3.0 0.0 35 86
h 0.348034 0 4 tcp 1040 ------- 0 0.0 3.0 55 106
+ 0.348212 3 4 ack 40 ------- 0 3.0 0.0 47 98
- 0.348212 3 4 ack 40 ------- 0 3.0 0.0 47 98
r 0.348886 4 0 ack 40 ------- 0 3.0 0.0 36 87
h 0.348886 0 4 tcp 1040 ------- 0 0.0 3.0 56 107
+ 0.349065 3 4 ack 40 ------- 0 3.0 0.0 48 99
- 0.349065 3 4 ack 40 ------- 0 3.0 0.0 48 99
r 0.349739 4 0 ack 40 ------- 0 3.0 0.0 37 88
h 0.349739 0 4 tcp 1040 ------- 0 0.0 3.0 57 108
+ 0.349918 3 4 ack 40 ------- 0 3.0 0.0 49 100
- 0.349918 3 4 ack 40 ------- 0 3.0 0.0 49 100
r 0.350592 4 0 ack 40 ------- 0 3.0 0.0 38 89
h 0.350592 0 4 tcp 1040 ------- 0 0.0 3.0 58 109
+ 0.35077 3 4 ack 40 ------- 0 3.0 0.0 50 101
- 0.35077 3 4 ack 40 ------- 0 3.0 0.0 50 101
r 0.351445 4 0 ack 40 ------- 0 3.0 0.0 39 90
h 0.351445 0 4 tcp 1040 ------- 0 0.0 3.0 59 110
r 0.352298 4 0 ack 40 ------- 0 3.0 0.0 40 91
h 0.352298 0 4 tcp 1040 ------- 0 0.0 3.0 60 111
r 0.35315 4 0 ack 40 ------- 0 3.0 0.0 41 92
h 0.35315 0 4 tcp 1040 ------- 0 0.0 3.0 61 112
r 0.354003 4 0 ack 40 ------- 0 3.0 0.0 42 93
h 0.354003 0 4 tcp 1040 ------- 0 0.0 3.0 62 113
+ 0.354622 0 4 tcp 1040 ------- 0 0.0 3.0 51 102
- 0.354622 0 4 tcp 1040 ------- 0 0.0 3.0 51 102
r 0.354856 4 0 ack 40 ------- 0 3.0 0.0 43 94
h 0.354856 0 4 tcp 1040 ------- 0 0.0 3.0 63 114
+ 0.355475 0 4 tcp 1040 ------- 0 0.0 3.0 52 103
- 0.355475 0 4 tcp 1040 ------- 0 0.0 3.0 52 103
r 0.355709 4 0 ack 40 ------- 0 3.0 0.0 44 95
h 0.355709 0 4 tcp 1040 ------- 0 0.0 3.0 64 115
+ 0.356328 0 4 tcp 1040 ------- 0 0.0 3.0 53 104
- 0.356328 0 4 tcp 1040 ------- 0 0.0 3.0 53 104
r 0.356562 4 0 ack 40 ------- 0 3.0 0.0 45 96
h 0.356562 0 4 tcp 1040 ------- 0 0.0 3.0 65 116
+ 0.357181 0 4 tcp 1040 ------- 0 0.0 3.0 54 105
- 0.357181 0 4 tcp 1040 ------- 0 0.0 3.0 54 105
r 0.357414 4 0 ack 40 ------- 0 3.0 0.0 46 97
h 0.357414 0 4 tcp 1040 ------- 0 0.0 3.0 66 117
+ 0.358034 0 4 tcp 1040 ------- 0 0.0 3.0 55 106
- 0.358034 0 4 tcp 1040 ------- 0 0.0 3.0 55 106
r 0.358267 4 0 ack 40 ------- 0 3.0 0.0 47 98
h 0.358267 0 4 tcp 1040 ------- 0 0.0 3.0 67 118
+ 0.358886 0 4 tcp 1040 ------- 0 0.0 3.0 56 107
- 0.358886 0 4 tcp 1040 ------- 0 0.0 3.0 56 107
r 0.35912 4 0 ack 40 ------- 0 3.0 0.0 48 99
h 0.35912 0 4 tcp 1040 ------- 0 0.0 3.0 68 119
+ 0.359739 0 4 tcp 1040 ------- 0 0.0 3.0 57 108
- 0.359739 0 4 tcp 1040 ------- 0 0.0 3.0 57 108
r 0.359973 4 0 ack 40 ------- 0 3.0 0.0 49 100
h 0.359973 0 4 tcp 1040 ------- 0 0.0 3.0 69 120
+ 0.360592 0 4 tcp 1040 ------- 0 0.0 3.0 58 109
- 0.360592 0 4 tcp 1040 ------- 0 0.0 3.0 58 109
r 0.360826 4 0 ack 40 ------- 0 3.0 0.0 50 101
h 0.360826 0 4 tcp 1040 ------- 0 0.0 3.0 70 121
+ 0.361445 0 4 tcp 1040 ------- 0 0.0 3.0 59 110
- 0.361445 0 4 tcp 1040 ------- 0 0.0 3.0 59 110
+ 0.362298 0 4 tcp 1040 ------- 0 0.0 3.0 60 111
- 0.362298 0 4 tcp 1040 ------- 0 0.0 3.0 60 111
+ 0.36315 0 4 tcp 1040 ------- 0 0.0 3.0 61 112
- 0.36315 0 4 tcp 1040 ------- 0 0.0 3.0 61 112
+ 0.364003 0 4 tcp 1040 ------- 0 0.0 3.0 62 113
- 0.364003 0 4 tcp 1040 ------- 0 0.0 3.0 62 113
+ 0.364856 0 4 tcp 1040 ------- 0 0.0 3.0 63 114
- 0.364856 0 4 tcp 1040 ------- 0 0.0 3.0 63 114
r 0.36547 4 3 tcp 1040 ------- 0 0.0 3.0 51 102
h 0.36547 3 4 ack 40 ------- 0 3.0 0.0 51 122
+ 0.365709 0 4 tcp 1040 ------- 0 0.0 3.0 64 115
- 0.365709 0 4 tcp 1040 ------- 0 0.0 3.0 64 115
r 0.366322 4 3 tcp 1040 ------- 0 0.0 3.0 52 103
h 0.366322 3 4 ack 40 ------- 0 3.0 0.0 52 123
+ 0.366562 0 4 tcp 1040 ------- 0 0.0 3.0 65 116
- 0.366562 0 4 tcp 1040 ------- 0 0.0 3.0 65 116
r 0.367175 4 3 tcp 1040 ------- 0 0.0 3.0 53 104
h 0.367175 3 4 ack 40 ------- 0 3.0 0.0 53 124
+ 0.367414 0 4 tcp 1040 ------- 0 0.0 3.0 66 117
- 0.367414 0 4 tcp 1040 ------- 0 0.0 3.0 66 117
r 0.368028 4 3 tcp 1040 ------- 0 0.0 3.0 54 105
h 0.368028 3 4 ack 40 ------- 0 3.0 0.0 54 125
+ 0.368267 0 4 tcp 1040 ------- 0 0.0 3.0 67 118
- 0.368267 0 4 tcp 1040 ------- 0 0.0 3.0 67 118
r 0.368881 4 3 tcp 1040 ------- 0 0.0 3.0 55 106
h 0.368881 3 4 ack 40 ------- 0 3.0 0.0 55 126
+ 0.36912 0 4 tcp 1040 ------- 0 0.0 3.0 68 119
- 0.36912 0 4 tcp 1040 ------- 0 0.0 3.0 68 119
r 0.369734 4 3 tcp 1040 ------- 0 0.0 3.0 56 107
h 0.369734 3 4 ack 40 ------- 0 3.0 0.0 56 127
+ 0.369973 0 4 tcp 1040 ------- 0 0.0 3.0 69 120
- 0.369973 0 4 tcp 1040 ------- 0 0.0 3.0 69 120
r 0.370586 4 3 tcp 1040 ------- 0 0.0 3.0 57 108
h 0.370586 3 4 ack 40 ------- 0 3.0 0.0 57 128
+ 0.370826 0 4 tcp 1040 ------- 0 0.0 3.0 70 121
- 0.370826 0 4 tcp 1040 ------- 0 0.0 3.0 70 121
r 0.371439 4 3 tcp 1040 ------- 0 0.0 3.0 58 109
h 0.371439 3 4 ack 40 ------- 0 3.0 0.0 58 129
r 0.372292 4 3 tcp 1040 ------- 0 0.0 3.0 59 110
h 0.372292 3 4 ack 40 ------- 0 3.0 0.0 59 130
r 0.373145 4 3 tcp 1040 ------- 0 0.0 3.0 60 111
h 0.373145 3 4 ack 40 ------- 0 3.0 0.0 60 131
r 0.373998 4 3 tcp 1040 ------- 0 0.0 3.0 61 112
h 0.373998 3 4 ack 40 ------- 0 3.0 0.0 61 132
r 0.37485 4 3 tcp 1040 ------- 0 0.0 3.0 62 113
h 0.37485 3 4 ack 40 ------- 0 3.0 0.0 62 133
+ 0.37547 3 4 ack 40 ------- 0 3.0 0.0 51 122
- 0.37547 3 4 ack 40 ------- 0 3.0 0.0 51 122
r 0.375703 4 3 tcp 1040 ------- 0 0.0 3.0 63 114
h 0.375703 3 4 ack 40 ------- 0 3.0 0.0 63 134
+ 0.376322 3 4 ack 40 ------- 0 3.0 0.0 52 123
- 0.376322 3 4 ack 40 ------- 0 3.0 0.0 52 123
r 0.376556 4 3 tcp 1040 ------- 0 0.0 3.0 64 115
h 0.376556 3 4 ack 40 ------- 0 3.0 0.0 64 135
+ 0.377175 3 4 ack 40 ------- 0 3.0 0.0 53 124
- 0.377175 3 4 ack 40 ------- 0 3.0 0.0 53 124
r 0.377409 4 3 tcp 1040 ------- 0 0.0 3.0 65 116
h 0.377409 3 4 ack 40 ------- 0 3.0 0.0 65 136
+ 0.378028 3 4 ack 40 ------- 0 3.0 0.0 54 125
- 0.378028 3 4 ack 40 ------- 0 3.0 0.0 54 125
r 0.378262 4 3 tcp 1040 ------- 0 0.0 3.0 66 117
h 0.378262 3 4 ack 40 ------- 0 3.0 0.0 66 137
+ 0.378881 3 4 ack 40 ------- 0 3.0 0.0 55 126
- 0.378881 3 4 ack 40 ------- 0 3.0 0.0 55 126
r 0.379114 4 3 tcp 1040 ------- 0 0.0 3.0 67 118
h 0.379114 3 4 ack 40 ------- 0 3.0 0.0 67 138
+ 0.379734 3 4 ack 40 ------- 0 3.0 0.0 56 127
- 0.379734 3 4 ack 40 ------- 0 3.0 0.0 56 127
r 0.379967 4 3 tcp 1040 ------- 0 0.0 3.0 68 119
h 0.379967 3 4 ack 40 ------- 0 3.0 0.0 68 139
+ 0.380586 3 4 ack 40 ------- 0 3.0 0.0 57 128
- 0.380586 3 4 ack 40 ------- 0 3.0 0.0 57 128
r 0.38082 4 3 tcp 1040 ------- 0 0.0 3.0 69 120
h 0.38082 3 4 ack 40 ------- 0 3.0 0.0 69 140
+ 0.381439 3 4 ack 40 ------- 0 3.0 0.0 58 129
- 0.381439 3 4 ack 40 ------- 0 3.0 0.0 58 129
r 0.381673 4 3 tcp 1040 ------- 0 0.0 3.0 70 121
h 0.381673 3 4 ack 40 ------- 0 3.0 0.0 70 141
+ 0.382292 3 4 ack 40 ------- 0 3.0 0.0 59 130
- 0.382292 3 4 ack 40 ------- 0 3.0 0.0 59 130
+ 0.383145 3 4 ack 40 ------- 0 3.0 0.0 60 131
- 0.383145 3 4 ack 40 ------- 0 3.0 0.0 60 131
+ 0.383998 3 4 ack 40 ------- 0 3.0 0.0 61 132
- 0.383998 3 4 ack 40 ------- 0 3.0 0.0 61 132
+ 0.38485 3 4 ack 40 ------- 0 3.0 0.0 62 133
- 0.38485 3 4 ack 40 ------- 0 3.0 0.0 62 133
r 0.385525 4 0 ack 40 ------- 0 3.0 0.0 51 122
h 0.385525 0 4 tcp 1040 ------- 0 0.0 3.0 71 142
+ 0.385703 3 4 ack 40 ------- 0 3.0 0.0 63 134
- 0.385703 3 4 ack 40 ------- 0 3.0 0.0 63 134
r 0.386378 4 0 ack 40 ------- 0 3.0 0.0 52 123
h 0.386378 0 4 tcp 1040 ------- 0 0.0 3.0 72 143
+ 0.386556 3 4 ack 40 ------- 0 3.0 0.0 64 135
- 0.386556 3 4 ack 40 ------- 0 3.0 0.0 64 135
r 0.38723 4 0 ack 40 ------- 0 3.0 0.0 53 124
h 0.38723 0 4 tcp 1040 ------- 0 0.0 3.0 73 144
+ 0.387409 3 4 ack 40 ------- 0 3.0 0.0 65 136
- 0.387409 3 4 ack 40 ------- 0 3.0 0.0 65 136
r 0.388083 4 0 ack 40 ------- 0 3.0 0.0 54 125
h 0.388083 0 4 tcp 1040 ------- 0 0.0 3.0 74 145
+ 0.388262 3 4 ack 40 ------- 0 3.0 0.0 66 137
- 0.388262 3 4 ack 40 ------- 0 3.0 0.0 66 137
r 0.388936 4 0 ack 40 ------- 0 3.0 0.0 55 126
h 0.388936 0 4 tcp 1040 ------- 0 0.0 3.0 75 146
+ 0.389114 3 4 ack 40 ------- 0 3.0 0.0 67 138
- 0.389114 3 4 ack 40 ------- 0 3.0 0.0 67 138
r 0.389789 4 0 ack 40 ------- 0 3.0 0.0 56 127
h 0.389789 0 4 tcp 1040 ------- 0 0.0 3.0 76 147
+ 0.389967 3 4 ack 40 ------- 0 3.0 0.0 68 139
- 0.389967 3 4 ack 40 ------- 0 3.0 0.0 68 139
r 0.390642 4 0 ack 40 ------- 0 3.0 0.0 57 128
h 0.390642 0 4 tcp 1040 ------- 0 0.0 3.0 77 148
+ 0.39082 3 4 ack 40 ------- 0 3.0 0.0 69 140
- 0.39082 3 4 ack 40 ------- 0 3.0 0.0 69 140
r 0.391494 4 0 ack 40 ------- 0 3.0 0.0 58 129
h 0.391494 0 4 tcp 1040 ------- 0 0.0 3.0 78 149
+ 0.391673 3 4 ack 40 ------- 0 3.0 0.0 70 141
- 0.391673 3 4 ack 40 ------- 0 3.0 0.0 70 141
r 0.392347 4 0 ack 40 ------- 0 3.0 0.0 59 130
h 0.392347 0 4 tcp 1040 ------- 0 0.0 3.0 79 150
r 0.3932 4 0 ack 40 ------- 0 3.0 0.0 60 131
h 0.3932 0 4 tcp 1040 ------- 0 0.0 3.0 80 151
r 0.394053 4 0 ack 40 ------- 0 3.0 0.0 61 132
h 0.394053 0 4 tcp 1040 ------- 0 0.0 3.0 81 152
r 0.394906 4 0 ack 40 ------- 0 3.0 0.0 62 133
h 0.394906 0 4 tcp 1040 ------- 0 0.0 3.0 82 153
+ 0.395525 0 4 tcp 1040 ------- 0 0.0 3.0 71 142
- 0.395525 0 4 tcp 1040 ------- 0 0.0 3.0 71 142
r 0.395758 4 0 ack 40 ------- 0 3.0 0.0 63 134
h 0.395758 0 4 tcp 1040 ------- 0 0.0 3.0 83 154
+ 0.396378 0 4 tcp 1040 ------- 0 0.0 3.0 72 143
- 0.396378 0 4 tcp 1040 ------- 0 0.0 3.0 72 143
r 0.396611 4 0 ack 40 ------- 0 3.0 0.0 64 135
h 0.396611 0 4 tcp 1040 ------- 0 0.0 3.0 84 155
+ 0.39723 0 4 tcp 1040 ------- 0 0.0 3.0 73 144
- 0.39723 0 4 tcp 1040 ------- 0 0.0 3.0 73 144
r 0.397464 4 0 ack 40 ------- 0 3.0 0.0 65 136
h 0.397464 0 4 tcp 1040 ------- 0 0.0 3.0 85 156
+ 0.398083 0 4 tcp 1040 ------- 0 0.0 3.0 74 145
- 0.398083 0 4 tcp 1040 ------- 0 0.0 3.0 74 145
r 0.398317 4 0 ack 40 ------- 0 3.0 0.0 66 137
h 0.398317 0 4 tcp 1040 ------- 0 0.0 3.0 86 157
+ 0.398936 0 4 tcp 1040 ------- 0 0.0 3.0 75 146
- 0.398936 0 4 tcp 1040 ------- 0 0.0 3.0 75 146
r 0.39917 4 0 ack 40 ------- 0 3.0 0.0 67 138
h 0.39917 0 4 tcp 1040 ------- 0 0.0 3.0 87 158
+ 0.399789 0 4 tcp 1040 ------- 0 0.0 3.0 76 147
- 0.399789 0 4 tcp 1040 ------- 0 0.0 3.0 76 147
r 0.400022 4 0 ack 40 ------- 0 3.0 0.0 68 139
h 0.400022 0 4 tcp 1040 ------- 0 0.0 3.0 88 159
+ 0.400642 0 4 tcp 1040 ------- 0 0.0 3.0 77 148
- 0.400642 0 4 tcp 1040 ------- 0 0.0 3.0 77 148
r 0.400875 4 0 ack 40 ------- 0 3.0 0.0 69 140
h 0.400875 0 4 tcp 1040 ------- 0 0.0 3.0 89 160
+ 0.401494 0 4 tcp 1040 ------- 0 0.0 3.0 78 149
- 0.401494 0 4 tcp 1040 ------- 0 0.0 3.0 78 149
r 0.401728 4 0 ack 40 ------- 0 3.0 0.0 70 141
h 0.401728 0 4 tcp 1040 ------- 0 0.0 3.0 90 161
+ 0.402347 0 4 tcp 1040 ------- 0 0.0 3.0 79 150
- 0.402347 0 4 tcp 1040 ------- 0 0.0 3.0 79 150
+ 0.4032 0 4 tcp 1040 ------- 0 0.0 3.0 80 151
- 0.4032 0 4 tcp 1040 ------- 0 0.0 3.0 80 151
+ 0.404053 0 4 tcp 1040 ------- 0 0.0 3.0 81 152
- 0.404053 0 4 tcp 1040 ------- 0 0.0 3.0 81 152
+ 0.404906 0 4 tcp 1040 ------- 0 0.0 3.0 82 153
- 0.404906 0 4 tcp 1040 ------- 0 0.0 3.0 82 153
+ 0.405758 0 4 tcp 1040 ------- 0 0.0 3.0 83 154
- 0.405758 0 4 tcp 1040 ------- 0 0.0 3.0 83 154
r 0.406372 4 3 tcp 1040 ------- 0 0.0 3.0 71 142
h 0.406372 3 4 ack 40 ------- 0 3.0 0.0 71 162
+ 0.406611 0 4 tcp 1040 ------- 0 0.0 3.0 84 155
- 0.406611 0 4 tcp 1040 ------- 0 0.0 3.0 84 155
r 0.407225 4 3 tcp 1040 ------- 0 0.0 3.0 72 143
h 0.407225 3 4 ack 40 ------- 0 3.0 0.0 72 163
+ 0.407464 0 4 tcp 1040 ------- 0 0.0 3.0 85 156
- 0.407464 0 4 tcp 1040 ------- 0 0.0 3.0 85 156
r 0.408078 4 3 tcp 1040 ------- 0 0.0 3.0 73 144
h 0.408078 3 4 ack 40 ------- 0 3.0 0.0 73 164
+ 0.408317 0 4 tcp 1040 ------- 0 0.0 3.0 86 157
- 0.408317 0 4 tcp 1040 ------- 0 0.0 3.0 86 157
r 0.40893 4 3 tcp 1040 ------- 0 0.0 3.0 74 145
h 0.40893 3 4 ack 40 ------- 0 3.0 0.0 74 165
+ 0.40917 0 4 tcp 1040 ------- 0 0.0 3.0 87 158
- 0.40917 0 4 tcp 1040 ------- 0 0.0 3.0 87 158
r 0.409783 4 3 tcp 1040 ------- 0 0.0 3.0 75 146
h 0.409783 3 4 ack 40 ------- 0 3.0 0.0 75 166
+ 0.410022 0 4 tcp 1040 ------- 0 0.0 3.0 88 159
- 0.410022 0 4 tcp 1040 ------- 0 0.0 3.0 88 159
r 0.410636 4 3 tcp 1040 ------- 0 0.0 3.0 76 147
h 0.410636 3 4 ack 40 ------- 0 3.0 0.0 76 167