s 1.000000000 _1_ AGT  --- 0 tcp 40 [0 0 0 0] ------- [1:0 5:0 32 0] [0 0] 0 0
r 1.000000000 _1_ RTR  --- 0 tcp 40 [0 0 0 0] ------- [1:0 5:0 32 0] [0 0] 0 0
s 1.000000000 _1_ RTR  --- 0 AODV 48 [0 0 0 0] ------- [1:255 -1:255 30 0] [0x2 1 1 [5 0] [1 4]] (REQUEST)
s 1.000635000 _1_ MAC  --- 0 AODV 106 [0 ffffffff 1 800] ------- [1:255 -1:255 30 0] [0x2 1 1 [5 0] [1 4]] (REQUEST)
r 1.001483807 _0_ MAC  --- 0 AODV 48 [0 ffffffff 1 800] ------- [1:255 -1:255 30 0] [0x2 1 1 [5 0] [1 4]] (REQUEST)
r 1.001508807 _0_ RTR  --- 0 AODV 48 [0 ffffffff 1 800] ------- [1:255 -1:255 30 0] [0x2 1 1 [5 0] [1 4]] (REQUEST)
s 1.005920541 _0_ RTR  --- 0 AODV 48 [0 ffffffff 1 800] ------- [0:255 -1:255 29 0] [0x2 2 1 [5 0] [1 4]] (REQUEST)
s 1.005995541 _0_ MAC  --- 0 AODV 106 [0 ffffffff 0 800] ------- [0:255 -1:255 29 0] [0x2 2 1 [5 0] [1 4]] (REQUEST)
r 1.006844279 _2_ MAC  --- 0 AODV 48 [0 ffffffff 0 800] ------- [0:255 -1:255 29 0] [0x2 2 1 [5 0] [1 4]] (REQUEST)
r 1.006844311 _6_ MAC  --- 0 AODV 48 [0 ffffffff 0 800] ------- [0:255 -1:255 29 0] [0x2 2 1 [5 0] [1 4]] (REQUEST)
r 1.006844348 _1_ MAC  --- 0 AODV 48 [0 ffffffff 0 800] ------- [0:255 -1:255 29 0] [0x2 2 1 [5 0] [1 4]] (REQUEST)
r 1.006869279 _2_ RTR  --- 0 AODV 48 [0 ffffffff 0 800] ------- [0:255 -1:255 29 0] [0x2 2 1 [5 0] [1 4]] (REQUEST)
r 1.006869311 _6_ RTR  --- 0 AODV 48 [0 ffffffff 0 800] ------- [0:255 -1:255 29 0] [0x2 2 1 [5 0] [1 4]] (REQUEST)
r 1.006869348 _1_ RTR  --- 0 AODV 48 [0 ffffffff 0 800] ------- [0:255 -1:255 29 0] [0x2 2 1 [5 0] [1 4]] (REQUEST)
s 1.009215328 _6_ RTR  --- 0 AODV 48 [0 ffffffff 0 800] ------- [6:255 -1:255 28 0] [0x2 3 1 [5 0] [1 4]] (REQUEST)
s 1.009650328 _6_ MAC  --- 0 AODV 106 [0 ffffffff 6 800] ------- [6:255 -1:255 28 0] [0x2 3 1 [5 0] [1 4]] (REQUEST)
r 1.010499008 _7_ MAC  --- 0 AODV 48 [0 ffffffff 6 800] ------- [6:255 -1:255 28 0] [0x2 3 1 [5 0] [1 4]] (REQUEST)
r 1.010499092 _3_ MAC  --- 0 AODV 48 [0 ffffffff 6 800] ------- [6:255 -1:255 28 0] [0x2 3 1 [5 0] [1 4]] (REQUEST)
r 1.010499098 _0_ MAC  --- 0 AODV 48 [0 ffffffff 6 800] ------- [6:255 -1:255 28 0] [0x2 3 1 [5 0] [1 4]] (REQUEST)
r 1.010524008 _7_ RTR  --- 0 AODV 48 [0 ffffffff 6 800] ------- [6:255 -1:255 28 0] [0x2 3 1 [5 0] [1 4]] (REQUEST)
r 1.010524092 _3_ RTR  --- 0 AODV 48 [0 ffffffff 6 800] ------- [6:255 -1:255 28 0] [0x2 3 1 [5 0] [1 4]] (REQUEST)
r 1.010524098 _0_ RTR  --- 0 AODV 48 [0 ffffffff 6 800] ------- [6:255 -1:255 28 0] [0x2 3 1 [5 0] [1 4]] (REQUEST)
s 1.012165546 _3_ RTR  --- 0 AODV 48 [0 ffffffff 6 800] ------- [3:255 -1:255 27 0] [0x2 4 1 [5 0] [1 4]] (REQUEST)
s 1.012780546 _3_ MAC  --- 0 AODV 106 [0 ffffffff 3 800] ------- [3:255 -1:255 27 0] [0x2 4 1 [5 0] [1 4]] (REQUEST)
r 1.013629214 _4_ MAC  --- 0 AODV 48 [0 ffffffff 3 800] ------- [3:255 -1:255 27 0] [0x2 4 1 [5 0] [1 4]] (REQUEST)
r 1.013629310 _6_ MAC  --- 0 AODV 48 [0 ffffffff 3 800] ------- [3:255 -1:255 27 0] [0x2 4 1 [5 0] [1 4]] (REQUEST)
r 1.013629313 _5_ MAC  --- 0 AODV 48 [0 ffffffff 3 800] ------- [3:255 -1:255 27 0] [0x2 4 1 [5 0] [1 4]] (REQUEST)
r 1.013654214 _4_ RTR  --- 0 AODV 48 [0 ffffffff 3 800] ------- [3:255 -1:255 27 0] [0x2 4 1 [5 0] [1 4]] (REQUEST)
r 1.013654310 _6_ RTR  --- 0 AODV 48 [0 ffffffff 3 800] ------- [3:255 -1:255 27 0] [0x2 4 1 [5 0] [1 4]] (REQUEST)
r 1.013654313 _5_ RTR  --- 0 AODV 48 [0 ffffffff 3 800] ------- [3:255 -1:255 27 0] [0x2 4 1 [5 0] [1 4]] (REQUEST)
s 1.013654313 _5_ RTR  --- 0 AODV 44 [0 0 0 0] ------- [5:255 1:255 30 3] [0x4 1 [5 4] 10.000000] (REPLY)
s 1.013949313 _5_ MAC  --- 0 ARP 86 [0 ffffffff 5 806] ------- [REQUEST 5/5 0/3]
r 1.014638080 _3_ MAC  --- 0 ARP 28 [0 ffffffff 5 806] ------- [REQUEST 5/5 0/3]
s 1.014792297 _4_ RTR  --- 0 AODV 48 [0 ffffffff 3 800] ------- [4:255 -1:255 26 0] [0x2 5 1 [5 0] [1 4]] (REQUEST)
s 1.015034039 _2_ RTR  --- 0 AODV 48 [0 ffffffff 0 800] ------- [2:255 -1:255 28 0] [0x2 3 1 [5 0] [1 4]] (REQUEST)
s 1.015173080 _3_ MAC  --- 0 RTS 44 [52e 5 3 0] 
r 1.015525847 _5_ MAC  --- 0 RTS 44 [52e 5 3 0] 
s 1.015535847 _5_ MAC  --- 0 CTS 38 [3f4 3 0 0] 
r 1.015840613 _3_ MAC  --- 0 CTS 38 [3f4 3 0 0] 
s 1.015850613 _3_ MAC  --- 0 ARP 86 [13a 5 3 806] ------- [REPLY 3/3 5/5]
r 1.016539380 _5_ MAC  --- 0 ARP 28 [13a 5 3 806] ------- [REPLY 3/3 5/5]
s 1.016549380 _5_ MAC  --- 0 ACK 38 [0 3 0 0] 
r 1.016854147 _3_ MAC  --- 0 ACK 38 [0 3 0 0] 
s 1.017103380 _5_ MAC  --- 0 RTS 44 [5ae 3 5 0] 
r 1.017456147 _3_ MAC  --- 0 RTS 44 [5ae 3 5 0] 
s 1.017466147 _3_ MAC  --- 0 CTS 38 [474 5 0 0] 
r 1.017770914 _5_ MAC  --- 0 CTS 38 [474 5 0 0] 
s 1.017780914 _5_ MAC  --- 0 AODV 102 [13a 3 5 800] ------- [5:255 1:255 30 3] [0x4 1 [5 4] 10.000000] (REPLY)
r 1.018597681 _3_ MAC  --- 0 AODV 44 [13a 3 5 800] ------- [5:255 1:255 30 3] [0x4 1 [5 4] 10.000000] (REPLY)
s 1.018607681 _3_ MAC  --- 0 ACK 38 [0 5 0 0] 
r 1.018622681 _3_ RTR  --- 0 AODV 44 [13a 3 5 800] ------- [5:255 1:255 30 3] [0x4 1 [5 4] 10.000000] (REPLY)
f 1.018622681 _3_ RTR  --- 0 AODV 44 [13a 3 5 800] ------- [5:255 1:255 29 6] [0x4 2 [5 4] 10.000000] (REPLY)
s 1.018887244 _7_ RTR  --- 0 AODV 48 [0 ffffffff 6 800] ------- [7:255 -1:255 27 0] [0x2 4 1 [5 0] [1 4]] (REQUEST)
r 1.018912448 _5_ MAC  --- 0 ACK 38 [0 5 0 0] 
s 1.019001681 _3_ MAC  --- 0 ARP 86 [0 ffffffff 3 806] ------- [REQUEST 3/3 0/6]
r 1.019690349 _4_ MAC  --- 0 ARP 28 [0 ffffffff 3 806] ------- [REQUEST 3/3 0/6]
r 1.019690445 _6_ MAC  --- 0 ARP 28 [0 ffffffff 3 806] ------- [REQUEST 3/3 0/6]
r 1.019690448 _5_ MAC  --- 0 ARP 28 [0 ffffffff 3 806] ------- [REQUEST 3/3 0/6]
s 1.019925445 _6_ MAC  --- 0 RTS 44 [52e 3 6 0] 
r 1.020278208 _3_ MAC  --- 0 RTS 44 [52e 3 6 0] 
s 1.020288208 _3_ MAC  --- 0 CTS 38 [3f4 6 0 0] 
r 1.020592972 _6_ MAC  --- 0 CTS 38 [3f4 6 0 0] 
s 1.020602972 _6_ MAC  --- 0 ARP 86 [13a 3 6 806] ------- [REPLY 6/6 3/3]
r 1.021291736 _3_ MAC  --- 0 ARP 28 [13a 3 6 806] ------- [REPLY 6/6 3/3]
s 1.021301736 _3_ MAC  --- 0 ACK 38 [0 6 0 0] 
r 1.021606499 _6_ MAC  --- 0 ACK 38 [0 6 0 0] 
s 1.021745879 _4_ MAC  --- 0 AODV 106 [0 ffffffff 4 800] ------- [4:255 -1:255 26 0] [0x2 5 1 [5 0] [1 4]] (REQUEST)
r 1.022594547 _3_ MAC  --- 0 AODV 48 [0 ffffffff 4 800] ------- [4:255 -1:255 26 0] [0x2 5 1 [5 0] [1 4]] (REQUEST)
r 1.022619547 _3_ RTR  --- 0 AODV 48 [0 ffffffff 4 800] ------- [4:255 -1:255 26 0] [0x2 5 1 [5 0] [1 4]] (REQUEST)
s 1.022824547 _3_ MAC  --- 0 RTS 44 [5ae 6 3 0] 
r 1.023177311 _6_ MAC  --- 0 RTS 44 [5ae 6 3 0] 
s 1.023187311 _6_ MAC  --- 0 CTS 38 [474 3 0 0] 
r 1.023492074 _3_ MAC  --- 0 CTS 38 [474 3 0 0] 
s 1.023502074 _3_ MAC  --- 0 AODV 102 [13a 6 3 800] ------- [5:255 1:255 29 6] [0x4 2 [5 4] 10.000000] (REPLY)
r 1.024318838 _6_ MAC  --- 0 AODV 44 [13a 6 3 800] ------- [5:255 1:255 29 6] [0x4 2 [5 4] 10.000000] (REPLY)
s 1.024328838 _6_ MAC  --- 0 ACK 38 [0 3 0 0] 
r 1.024343838 _6_ RTR  --- 0 AODV 44 [13a 6 3 800] ------- [5:255 1:255 29 6] [0x4 2 [5 4] 10.000000] (REPLY)
f 1.024343838 _6_ RTR  --- 0 AODV 44 [13a 6 3 800] ------- [5:255 1:255 28 0] [0x4 3 [5 4] 10.000000] (REPLY)
r 1.024633602 _3_ MAC  --- 0 ACK 38 [0 3 0 0] 
s 1.024753173 _7_ MAC  --- 0 AODV 106 [0 ffffffff 7 800] ------- [7:255 -1:255 27 0] [0x2 4 1 [5 0] [1 4]] (REQUEST)
r 1.025601853 _6_ MAC  --- 0 AODV 48 [0 ffffffff 7 800] ------- [7:255 -1:255 27 0] [0x2 4 1 [5 0] [1 4]] (REQUEST)
r 1.025626853 _6_ RTR  --- 0 AODV 48 [0 ffffffff 7 800] ------- [7:255 -1:255 27 0] [0x2 4 1 [5 0] [1 4]] (REQUEST)
s 1.026091853 _6_ MAC  --- 0 ARP 86 [0 ffffffff 6 806] ------- [REQUEST 6/6 0/0]
r 1.026780533 _7_ MAC  --- 0 ARP 28 [0 ffffffff 6 806] ------- [REQUEST 6/6 0/0]
r 1.026780617 _3_ MAC  --- 0 ARP 28 [0 ffffffff 6 806] ------- [REQUEST 6/6 0/0]
r 1.026780623 _0_ MAC  --- 0 ARP 28 [0 ffffffff 6 806] ------- [REQUEST 6/6 0/0]
s 1.027135623 _0_ MAC  --- 0 RTS 44 [52e 6 0 0] 
r 1.027488393 _6_ MAC  --- 0 RTS 44 [52e 6 0 0] 
s 1.027498393 _6_ MAC  --- 0 CTS 38 [3f4 0 0 0] 
r 1.027803162 _0_ MAC  --- 0 CTS 38 [3f4 0 0 0] 
s 1.027813162 _0_ MAC  --- 0 ARP 86 [13a 6 0 806] ------- [REPLY 0/0 6/6]
r 1.028501932 _6_ MAC  --- 0 ARP 28 [13a 6 0 806] ------- [REPLY 0/0 6/6]
s 1.028511932 _6_ MAC  --- 0 ACK 38 [0 0 0 0] 
r 1.028816702 _0_ MAC  --- 0 ACK 38 [0 0 0 0] 
s 1.029225932 _6_ MAC  --- 0 RTS 44 [5ae 0 6 0] 
r 1.029578702 _0_ MAC  --- 0 RTS 44 [5ae 0 6 0] 
s 1.029588702 _0_ MAC  --- 0 CTS 38 [474 6 0 0] 
r 1.029893472 _6_ MAC  --- 0 CTS 38 [474 6 0 0] 
s 1.029903472 _6_ MAC  --- 0 AODV 102 [13a 0 6 800] ------- [5:255 1:255 28 0] [0x4 3 [5 4] 10.000000] (REPLY)
r 1.030720241 _0_ MAC  --- 0 AODV 44 [13a 0 6 800] ------- [5:255 1:255 28 0] [0x4 3 [5 4] 10.000000] (REPLY)
s 1.030730241 _0_ MAC  --- 0 ACK 38 [0 6 0 0] 
r 1.030745241 _0_ RTR  --- 0 AODV 44 [13a 0 6 800] ------- [5:255 1:255 28 0] [0x4 3 [5 4] 10.000000] (REPLY)
f 1.030745241 _0_ RTR  --- 0 AODV 44 [13a 0 6 800] ------- [5:255 1:255 27 1] [0x4 4 [5 4] 10.000000] (REPLY)
r 1.031035011 _6_ MAC  --- 0 ACK 38 [0 6 0 0] 
s 1.031164241 _0_ MAC  --- 0 ARP 86 [0 ffffffff 0 806] ------- [REQUEST 0/0 0/1]
r 1.031852979 _2_ MAC  --- 0 ARP 28 [0 ffffffff 0 806] ------- [REQUEST 0/0 0/1]
r 1.031853011 _6_ MAC  --- 0 ARP 28 [0 ffffffff 0 806] ------- [REQUEST 0/0 0/1]
r 1.031853049 _1_ MAC  --- 0 ARP 28 [0 ffffffff 0 806] ------- [REQUEST 0/0 0/1]
s 1.032008049 _1_ MAC  --- 0 RTS 44 [52e 0 1 0] 
r 1.032360856 _0_ MAC  --- 0 RTS 44 [52e 0 1 0] 
s 1.032370856 _0_ MAC  --- 0 CTS 38 [3f4 1 0 0] 
r 1.032675663 _1_ MAC  --- 0 CTS 38 [3f4 1 0 0] 
s 1.032685663 _1_ MAC  --- 0 ARP 86 [13a 0 1 806] ------- [REPLY 1/1 0/0]
r 1.033374470 _0_ MAC  --- 0 ARP 28 [13a 0 1 806] ------- [REPLY 1/1 0/0]
s 1.033384470 _0_ MAC  --- 0 ACK 38 [0 1 0 0] 
r 1.033689278 _1_ MAC  --- 0 ACK 38 [0 1 0 0] 
s 1.033838470 _0_ MAC  --- 0 RTS 44 [5ae 1 0 0] 
r 1.034191278 _1_ MAC  --- 0 RTS 44 [5ae 1 0 0] 
s 1.034201278 _1_ MAC  --- 0 CTS 38 [474 0 0 0] 
r 1.034506085 _0_ MAC  --- 0 CTS 38 [474 0 0 0] 
s 1.034516085 _0_ MAC  --- 0 AODV 102 [13a 1 0 800] ------- [5:255 1:255 27 1] [0x4 4 [5 4] 10.000000] (REPLY)
r 1.035332892 _1_ MAC  --- 0 AODV 44 [13a 1 0 800] ------- [5:255 1:255 27 1] [0x4 4 [5 4] 10.000000] (REPLY)
s 1.035342892 _1_ MAC  --- 0 ACK 38 [0 0 0 0] 
r 1.035357892 _1_ RTR  --- 0 AODV 44 [13a 1 0 800] ------- [5:255 1:255 27 1] [0x4 4 [5 4] 10.000000] (REPLY)
s 1.035357892 _1_ RTR  --- 0 tcp 40 [0 0 0 0] ------- [1:0 5:0 30 0] [0 0] 0 0
r 1.035647699 _0_ MAC  --- 0 ACK 38 [0 0 0 0] 
s 1.036101799 _2_ MAC  --- 0 AODV 106 [0 ffffffff 2 800] ------- [2:255 -1:255 28 0] [0x2 3 1 [5 0] [1 4]] (REQUEST)
r 1.036950537 _0_ MAC  --- 0 AODV 48 [0 ffffffff 2 800] ------- [2:255 -1:255 28 0] [0x2 3 1 [5 0] [1 4]] (REQUEST)
r 1.036975537 _0_ RTR  --- 0 AODV 48 [0 ffffffff 2 800] ------- [2:255 -1:255 28 0] [0x2 3 1 [5 0] [1 4]] (REQUEST)
s 1.037404707 _1_ MAC  --- 0 RTS 44 [58e 0 1 0] 
r 1.037757514 _0_ MAC  --- 0 RTS 44 [58e 0 1 0] 
s 1.037767514 _0_ MAC  --- 0 CTS 38 [454 1 0 0] 
r 1.038072321 _1_ MAC  --- 0 CTS 38 [454 1 0 0] 
s 1.038082321 _1_ MAC  --- 0 tcp 98 [13a 0 1 800] ------- [1:0 5:0 30 0] [0 0] 0 0
r 1.038867129 _0_ MAC  --- 0 tcp 40 [13a 0 1 800] ------- [1:0 5:0 30 0] [0 0] 1 0
s 1.038877129 _0_ MAC  --- 0 ACK 38 [0 1 0 0] 
r 1.038892129 _0_ RTR  --- 0 tcp 40 [13a 0 1 800] ------- [1:0 5:0 30 0] [0 0] 1 0
f 1.038892129 _0_ RTR  --- 0 tcp 40 [13a 0 1 800] ------- [1:0 5:0 29 6] [0 0] 1 0
r 1.039181936 _1_ MAC  --- 0 ACK 38 [0 1 0 0] 
s 1.039811129 _0_ MAC  --- 0 RTS 44 [58e 6 0 0] 
r 1.040163898 _6_ MAC  --- 0 RTS 44 [58e 6 0 0] 
s 1.040173898 _6_ MAC  --- 0 CTS 38 [454 0 0 0] 
r 1.040478668 _0_ MAC  --- 0 CTS 38 [454 0 0 0] 
s 1.040488668 _0_ MAC  --- 0 tcp 98 [13a 6 0 800] ------- [1:0 5:0 29 6] [0 0] 1 0
r 1.041273438 _6_ MAC  --- 0 tcp 40 [13a 6 0 800] ------- [1:0 5:0 29 6] [0 0] 2 0
s 1.041283438 _6_ MAC  --- 0 ACK 38 [0 0 0 0] 
r 1.041298438 _6_ RTR  --- 0 tcp 40 [13a 6 0 800] ------- [1:0 5:0 29 6] [0 0] 2 0
f 1.041298438 _6_ RTR  --- 0 tcp 40 [13a 6 0 800] ------- [1:0 5:0 28 3] [0 0] 2 0
r 1.041588208 _0_ MAC  --- 0 ACK 38 [0 0 0 0] 
s 1.041757438 _6_ MAC  --- 0 RTS 44 [58e 3 6 0] 
r 1.042110202 _3_ MAC  --- 0 RTS 44 [58e 3 6 0] 
s 1.042120202 _3_ MAC  --- 0 CTS 38 [454 6 0 0] 
r 1.042424965 _6_ MAC  --- 0 CTS 38 [454 6 0 0] 
s 1.042434965 _6_ MAC  --- 0 tcp 98 [13a 3 6 800] ------- [1:0 5:0 28 3] [0 0] 2 0
r 1.043219729 _3_ MAC  --- 0 tcp 40 [13a 3 6 800] ------- [1:0 5:0 28 3] [0 0] 3 0
s 1.043229729 _3_ MAC  --- 0 ACK 38 [0 6 0 0] 
r 1.043244729 _3_ RTR  --- 0 tcp 40 [13a 3 6 800] ------- [1:0 5:0 28 3] [0 0] 3 0
f 1.043244729 _3_ RTR  --- 0 tcp 40 [13a 3 6 800] ------- [1:0 5:0 27 5] [0 0] 3 0
r 1.043534493 _6_ MAC  --- 0 ACK 38 [0 6 0 0] 
s 1.044083729 _3_ MAC  --- 0 RTS 44 [58e 5 3 0] 
r 1.044436496 _5_ MAC  --- 0 RTS 44 [58e 5 3 0] 
s 1.044446496 _5_ MAC  --- 0 CTS 38 [454 3 0 0] 
r 1.044751263 _3_ MAC  --- 0 CTS 38 [454 3 0 0] 
s 1.044761263 _3_ MAC  --- 0 tcp 98 [13a 5 3 800] ------- [1:0 5:0 27 5] [0 0] 3 0
r 1.045546030 _5_ MAC  --- 0 tcp 40 [13a 5 3 800] ------- [1:0 5:0 27 5] [0 0] 4 0
s 1.045556030 _5_ MAC  --- 0 ACK 38 [0 3 0 0] 
r 1.045571030 _5_ AGT  --- 0 tcp 40 [13a 5 3 800] ------- [1:0 5:0 27 5] [0 0] 4 0
s 1.045571030 _5_ AGT  --- 1 ack 40 [0 0 0 0] ------- [5:0 1:0 32 0] [0 0] 0 0
r 1.045571030 _5_ RTR  --- 1 ack 40 [0 0 0 0] ------- [5:0 1:0 32 0] [0 0] 0 0
s 1.045571030 _5_ RTR  --- 1 ack 40 [0 0 0 0] ------- [5:0 1:0 30 3] [0 0] 0 0
r 1.045860796 _3_ MAC  --- 0 ACK 38 [0 3 0 0] 
s 1.046090030 _5_ MAC  --- 0 RTS 44 [58e 3 5 0] 
r 1.046442796 _3_ MAC  --- 0 RTS 44 [58e 3 5 0] 
s 1.046452796 _3_ MAC  --- 0 CTS 38 [454 5 0 0] 
r 1.046757563 _5_ MAC  --- 0 CTS 38 [454 5 0 0] 
s 1.046767563 _5_ MAC  --- 1 ack 98 [13a 3 5 800] ------- [5:0 1:0 30 3] [0 0] 0 0
r 1.047552330 _3_ MAC  --- 1 ack 40 [13a 3 5 800] ------- [5:0 1:0 30 3] [0 0] 1 0
s 1.047562330 _3_ MAC  --- 0 ACK 38 [0 5 0 0] 
r 1.047577330 _3_ RTR  --- 1 ack 40 [13a 3 5 800] ------- [5:0 1:0 30 3] [0 0] 1 0
f 1.047577330 _3_ RTR  --- 1 ack 40 [13a 3 5 800] ------- [5:0 1:0 29 6] [0 0] 1 0
r 1.047867097 _5_ MAC  --- 0 ACK 38 [0 5 0 0] 
s 1.048036330 _3_ MAC  --- 0 RTS 44 [58e 6 3 0] 
r 1.048389094 _6_ MAC  --- 0 RTS 44 [58e 6 3 0] 
s 1.048399094 _6_ MAC  --- 0 CTS 38 [454 3 0 0] 
r 1.048703858 _3_ MAC  --- 0 CTS 38 [454 3 0 0] 
s 1.048713858 _3_ MAC  --- 1 ack 98 [13a 6 3 800] ------- [5:0 1:0 29 6] [0 0] 1 0
r 1.049498621 _6_ MAC  --- 1 ack 40 [13a 6 3 800] ------- [5:0 1:0 29 6] [0 0] 2 0
s 1.049508621 _6_ MAC  --- 0 ACK 38 [0 3 0 0] 
r 1.049523621 _6_ RTR  --- 1 ack 40 [13a 6 3 800] ------- [5:0 1:0 29 6] [0 0] 2 0
f 1.049523621 _6_ RTR  --- 1 ack 40 [13a 6 3 800] ------- [5:0 1:0 28 0] [0 0] 2 0
r 1.049813385 _3_ MAC  --- 0 ACK 38 [0 3 0 0] 
s 1.049862621 _6_ MAC  --- 0 RTS 44 [58e 0 6 0] 
r 1.050215391 _0_ MAC  --- 0 RTS 44 [58e 0 6 0] 
s 1.050225391 _0_ MAC  --- 0 CTS 38 [454 6 0 0] 
r 1.050530161 _6_ MAC  --- 0 CTS 38 [454 6 0 0] 
s 1.050540161 _6_ MAC  --- 1 ack 98 [13a 0 6 800] ------- [5:0 1:0 28 0] [0 0] 2 0
r 1.051324931 _0_ MAC  --- 1 ack 40 [13a 0 6 800] ------- [5:0 1:0 28 0] [0 0] 3 0
s 1.051334931 _0_ MAC  --- 0 ACK 38 [0 6 0 0] 
r 1.051349931 _0_ RTR  --- 1 ack 40 [13a 0 6 800] ------- [5:0 1:0 28 0] [0 0] 3 0
f 1.051349931 _0_ RTR  --- 1 ack 40 [13a 0 6 800] ------- [5:0 1:0 27 1] [0 0] 3 0
r 1.051639700 _6_ MAC  --- 0 ACK 38 [0 6 0 0] 
s 1.052008931 _0_ MAC  --- 0 RTS 44 [58e 1 0 0] 
r 1.052361738 _1_ MAC  --- 0 RTS 44 [58e 1 0 0] 
s 1.052371738 _1_ MAC  --- 0 CTS 38 [454 0 0 0] 
r 1.052676545 _0_ MAC  --- 0 CTS 38 [454 0 0 0] 
s 1.052686545 _0_ MAC  --- 1 ack 98 [13a 1 0 800] ------- [5:0 1:0 27 1] [0 0] 3 0
r 1.053471352 _1_ MAC  --- 1 ack 40 [13a 1 0 800] ------- [5:0 1:0 27 1] [0 0] 4 0
s 1.053481352 _1_ MAC  --- 0 ACK 38 [0 0 0 0] 
r 1.053496352 _1_ AGT  --- 1 ack 40 [13a 1 0 800] ------- [5:0 1:0 27 1] [0 0] 4 0
s 1.053496352 _1_ AGT  --- 2 tcp 1540 [0 0 0 0] ------- [1:0 5:0 32 0] [1 0] 0 0
r 1.053496352 _1_ RTR  --- 2 tcp 1540 [0 0 0 0] ------- [1:0 5:0 32 0] [1 0] 0 0
s 1.053496352 _1_ AGT  --- 3 tcp 1540 [0 0 0 0] ------- [1:0 5:0 32 0] [2 0] 0 0
r 1.053496352 _1_ RTR  --- 3 tcp 1540 [0 0 0 0] ------- [1:0 5:0 32 0] [2 0] 0 0
s 1.053496352 _1_ RTR  --- 2 tcp 1540 [0 0 0 0] ------- [1:0 5:0 30 0] [1 0] 0 0
s 1.053496352 _1_ RTR  --- 3 tcp 1540 [0 0 0 0] ------- [1:0 5:0 30 0] [2 0] 0 0
r 1.053786159 _0_ MAC  --- 0 ACK 38 [0 0 0 0] 
s 1.054055352 _1_ MAC  --- 0 RTS 44 [346e 0 1 0] 
r 1.054408159 _0_ MAC  --- 0 RTS 44 [346e 0 1 0] 
s 1.054418159 _0_ MAC  --- 0 CTS 38 [3334 1 0 0] 
r 1.054722967 _1_ MAC  --- 0 CTS 38 [3334 1 0 0] 
s 1.054732967 _1_ MAC  --- 2 tcp 1598 [13a 0 1 800] ------- [1:0 5:0 30 0] [1 0] 0 0
r 1.067517774 _0_ MAC  --- 2 tcp 1540 [13a 0 1 800] ------- [1:0 5:0 30 0] [1 0] 1 0
s 1.067527774 _0_ MAC  --- 0 ACK 38 [0 1 0 0] 
r 1.067542774 _0_ RTR  --- 2 tcp 1540 [13a 0 1 800] ------- [1:0 5:0 30 0] [1 0] 1 0
f 1.067542774 _0_ RTR  --- 2 tcp 1540 [13a 0 1 800] ------- [1:0 5:0 29 6] [1 0] 1 0
r 1.067832581 _1_ MAC  --- 0 ACK 38 [0 1 0 0] 
s 1.067882581 _1_ MAC  --- 0 RTS 44 [346e 0 1 0] 
r 1.068235388 _0_ MAC  --- 0 RTS 44 [346e 0 1 0] 
s 1.068245388 _0_ MAC  --- 0 CTS 38 [3334 1 0 0] 
r 1.068550195 _1_ MAC  --- 0 CTS 38 [3334 1 0 0] 
s 1.068560195 _1_ MAC  --- 3 tcp 1598 [13a 0 1 800] ------- [1:0 5:0 30 0] [2 0] 0 0
r 1.081345003 _0_ MAC  --- 3 tcp 1540 [13a 0 1 800] ------- [1:0 5:0 30 0] [2 0] 1 0
s 1.081355003 _0_ MAC  --- 0 ACK 38 [0 1 0 0] 
r 1.081370003 _0_ RTR  --- 3 tcp 1540 [13a 0 1 800] ------- [1:0 5:0 30 0] [2 0] 1 0
f 1.081370003 _0_ RTR  --- 3 tcp 1540 [13a 0 1 800] ------- [1:0 5:0 29 6] [2 0] 1 0
r 1.081659810 _1_ MAC  --- 0 ACK 38 [0 1 0 0] 
s 1.082009003 _0_ MAC  --- 0 RTS 44 [346e 6 0 0] 
r 1.082361772 _6_ MAC  --- 0 RTS 44 [346e 6 0 0] 
s 1.082371772 _6_ MAC  --- 0 CTS 38 [3334 0 0 0] 
r 1.082676542 _0_ MAC  --- 0 CTS 38 [3334 0 0 0] 
s 1.082686542 _0_ MAC  --- 2 tcp 1598 [13a 6 0 800] ------- [1:0 5:0 29 6] [1 0] 1 0
r 1.095471312 _6_ MAC  --- 2 tcp 1540 [13a 6 0 800] ------- [1:0 5:0 29 6] [1 0] 2 0
s 1.095481312 _6_ MAC  --- 0 ACK 38 [0 0 0 0] 
r 1.095496312 _6_ RTR  --- 2 tcp 1540 [13a 6 0 800] ------- [1:0 5:0 29 6] [1 0] 2 0
f 1.095496312 _6_ RTR  --- 2 tcp 1540 [13a 6 0 800] ------- [1:0 5:0 28 3] [1 0] 2 0
r 1.095786082 _0_ MAC  --- 0 ACK 38 [0 0 0 0] 
s 1.096116082 _0_ MAC  --- 0 RTS 44 [346e 6 0 0] 
r 1.096468852 _6_ MAC  --- 0 RTS 44 [346e 6 0 0] 
s 1.096478852 _6_ MAC  --- 0 CTS 38 [3334 0 0 0] 
r 1.096783621 _0_ MAC  --- 0 CTS 38 [3334 0 0 0] 
s 1.096793621 _0_ MAC  --- 3 tcp 1598 [13a 6 0 800] ------- [1:0 5:0 29 6] [2 0] 1 0
r 1.109578391 _6_ MAC  --- 3 tcp 1540 [13a 6 0 800] ------- [1:0 5:0 29 6] [2 0] 2 0
s 1.109588391 _6_ MAC  --- 0 ACK 38 [0 0 0 0] 
r 1.109603391 _6_ RTR  --- 3 tcp 1540 [13a 6 0 800] ------- [1:0 5:0 29 6] [2 0] 2 0
f 1.109603391 _6_ RTR  --- 3 tcp 1540 [13a 6 0 800] ------- [1:0 5:0 28 3] [2 0] 2 0
r 1.109893161 _0_ MAC  --- 0 ACK 38 [0 0 0 0] 
s 1.109962391 _6_ MAC  --- 0 RTS 44 [346e 3 6 0] 
r 1.110315155 _3_ MAC  --- 0 RTS 44 [346e 3 6 0] 
s 1.110325155 _3_ MAC  --- 0 CTS 38 [3334 6 0 0] 
r 1.110629918 _6_ MAC  --- 0 CTS 38 [3334 6 0 0] 
s 1.110639918 _6_ MAC  --- 2 tcp 1598 [13a 3 6 800] ------- [1:0 5:0 28 3] [1 0] 2 0
r 1.123424682 _3_ MAC  --- 2 tcp 1540 [13a 3 6 800] ------- [1:0 5:0 28 3] [1 0] 3 0
s 1.123434682 _3_ MAC  --- 0 ACK 38 [0 6 0 0] 
r 1.123449682 _3_ RTR  --- 2 tcp 1540 [13a 3 6 800] ------- [1:0 5:0 28 3] [1 0] 3 0
f 1.123449682 _3_ RTR  --- 2 tcp 1540 [13a 3 6 800] ------- [1:0 5:0 27 5] [1 0] 3 0
r 1.123739446 _6_ MAC  --- 0 ACK 38 [0 6 0 0] 
s 1.124029446 _6_ MAC  --- 0 RTS 44 [346e 3 6 0] 
r 1.124382210 _3_ MAC  --- 0 RTS 44 [346e 3 6 0] 
s 1.124392210 _3_ MAC  --- 0 CTS 38 [3334 6 0 0] 
r 1.124696973 _6_ MAC  --- 0 CTS 38 [3334 6 0 0] 
s 1.124706973 _6_ MAC  --- 3 tcp 1598 [13a 3 6 800] ------- [1:0 5:0 28 3] [2 0] 2 0
r 1.137491737 _3_ MAC  --- 3 tcp 1540 [13a 3 6 800] ------- [1:0 5:0 28 3] [2 0] 3 0
s 1.137501737 _3_ MAC  --- 0 ACK 38 [0 6 0 0] 
r 1.137516737 _3_ RTR  --- 3 tcp 1540 [13a 3 6 800] ------- [1:0 5:0 28 3] [2 0] 3 0
f 1.137516737 _3_ RTR  --- 3 tcp 1540 [13a 3 6 800] ------- [1:0 5:0 27 5] [2 0] 3 0
r 1.137806501 _6_ MAC  --- 0 ACK 38 [0 6 0 0] 
s 1.138095737 _3_ MAC  --- 0 RTS 44 [346e 5 3 0] 
r 1.138448504 _5_ MAC  --- 0 RTS 44 [346e 5 3 0] 
s 1.138458504 _5_ MAC  --- 0 CTS 38 [3334 3 0 0] 
r 1.138763271 _3_ MAC  --- 0 CTS 38 [3334 3 0 0] 
s 1.138773271 _3_ MAC  --- 2 tcp 1598 [13a 5 3 800] ------- [1:0 5:0 27 5] [1 0] 3 0
r 1.151558037 _5_ MAC  --- 2 tcp 1540 [13a 5 3 800] ------- [1:0 5:0 27 5] [1 0] 4 0
s 1.151568037 _5_ MAC  --- 0 ACK 38 [0 3 0 0] 
r 1.151583037 _5_ AGT  --- 2 tcp 1540 [13a 5 3 800] ------- [1:0 5:0 27 5] [1 0] 4 0
s 1.151583037 _5_ AGT  --- 4 ack 40 [0 0 0 0] ------- [5:0 1:0 32 0] [1 0] 0 0
r 1.151583037 _5_ RTR  --- 4 ack 40 [0 0 0 0] ------- [5:0 1:0 32 0] [1 0] 0 0
s 1.151583037 _5_ RTR  --- 4 ack 40 [0 0 0 0] ------- [5:0 1:0 30 3] [1 0] 0 0
r 1.151872804 _3_ MAC  --- 0 ACK 38 [0 3 0 0] 
s 1.151962804 _3_ MAC  --- 0 RTS 44 [346e 5 3 0] 
r 1.152315571 _5_ MAC  --- 0 RTS 44 [346e 5 3 0] 
s 1.152325571 _5_ MAC  --- 0 CTS 38 [3334 3 0 0] 
r 1.152630338 _3_ MAC  --- 0 CTS 38 [3334 3 0 0] 
s 1.152640338 _3_ MAC  --- 3 tcp 1598 [13a 5 3 800] ------- [1:0 5:0 27 5] [2 0] 3 0
r 1.165425105 _5_ MAC  --- 3 tcp 1540 [13a 5 3 800] ------- [1:0 5:0 27 5] [2 0] 4 0
s 1.165435105 _5_ MAC  --- 0 ACK 38 [0 3 0 0] 
r 1.165450105 _5_ AGT  --- 3 tcp 1540 [13a 5 3 800] ------- [1:0 5:0 27 5] [2 0] 4 0
s 1.165450105 _5_ AGT  --- 5 ack 40 [0 0 0 0] ------- [5:0 1:0 32 0] [2 0] 0 0
r 1.165450105 _5_ RTR  --- 5 ack 40 [0 0 0 0] ------- [5:0 1:0 32 0] [2 0] 0 0
s 1.165450105 _5_ RTR  --- 5 ack 40 [0 0 0 0] ------- [5:0 1:0 30 3] [2 0] 0 0
r 1.165739872 _3_ MAC  --- 0 ACK 38 [0 3 0 0] 
s 1.166049105 _5_ MAC  --- 0 RTS 44 [58e 3 5 0] 
r 1.166401872 _3_ MAC  --- 0 RTS 44 [58e 3 5 0] 
s 1.166411872 _3_ MAC  --- 0 CTS 38 [454 5 0 0] 
r 1.166716639 _5_ MAC  --- 0 CTS 38 [454 5 0 0] 
s 1.166726639 _5_ MAC  --- 4 ack 98 [13a 3 5 800] ------- [5:0 1:0 30 3] [1 0] 0 0
r 1.167511405 _3_ MAC  --- 4 ack 40 [13a 3 5 800] ------- [5:0 1:0 30 3] [1 0] 1 0
s 1.167521405 _3_ MAC  --- 0 ACK 38 [0 5 0 0] 
r 1.167536405 _3_ RTR  --- 4 ack 40 [13a 3 5 800] ------- [5:0 1:0 30 3] [1 0] 1 0
f 1.167536405 _3_ RTR  --- 4 ack 40 [13a 3 5 800] ------- [5:0 1:0 29 6] [1 0] 1 0
r 1.167826172 _5_ MAC  --- 0 ACK 38 [0 5 0 0] 
s 1.167996172 _5_ MAC  --- 0 RTS 44 [58e 3 5 0] 
r 1.168348939 _3_ MAC  --- 0 RTS 44 [58e 3 5 0] 
s 1.168358939 _3_ MAC  --- 0 CTS 38 [454 5 0 0] 
r 1.168663706 _5_ MAC  --- 0 CTS 38 [454 5 0 0] 
s 1.168673706 _5_ MAC  --- 5 ack 98 [13a 3 5 800] ------- [5:0 1:0 30 3] [2 0] 0 0
r 1.169458473 _3_ MAC  --- 5 ack 40 [13a 3 5 800] ------- [5:0 1:0 30 3] [2 0] 1 0
s 1.169468473 _3_ MAC  --- 0 ACK 38 [0 5 0 0] 
r 1.169483473 _3_ RTR  --- 5 ack 40 [13a 3 5 800] ------- [5:0 1:0 30 3] [2 0] 1 0
f 1.169483473 _3_ RTR  --- 5 ack 40 [13a 3 5 800] ------- [5:0 1:0 29 6] [2 0] 1 0
r 1.169773240 _5_ MAC  --- 0 ACK 38 [0 5 0 0] 
s 1.169922473 _3_ MAC  --- 0 RTS 44 [58e 6 3 0] 
r 1.170275236 _6_ MAC  --- 0 RTS 44 [58e 6 3 0] 
s 1.170285236 _6_ MAC  --- 0 CTS 38 [454 3 0 0] 
r 1.170590000 _3_ MAC  --- 0 CTS 38 [454 3 0 0] 
s 1.170600000 _3_ MAC  --- 4 ack 98 [13a 6 3 800] ------- [5:0 1:0 29 6] [1 0] 1 0
r 1.171384764 _6_ MAC  --- 4 ack 40 [13a 6 3 800] ------- [5:0 1:0 29 6] [1 0] 2 0
s 1.171394764 _6_ MAC  --- 0 ACK 38 [0 3 0 0] 
r 1.171409764 _6_ RTR  --- 4 ack 40 [13a 6 3 800] ------- [5:0 1:0 29 6] [1 0] 2 0
f 1.171409764 _6_ RTR  --- 4 ack 40 [13a 6 3 800] ------- [5:0 1:0 28 0] [1 0] 2 0
r 1.171699528 _3_ MAC  --- 0 ACK 38 [0 3 0 0] 
s 1.171829528 _3_ MAC  --- 0 RTS 44 [58e 6 3 0] 
r 1.172182291 _6_ MAC  --- 0 RTS 44 [58e 6 3 0] 
s 1.172192291 _6_ MAC  --- 0 CTS 38 [454 3 0 0] 
r 1.172497055 _3_ MAC  --- 0 CTS 38 [454 3 0 0] 
s 1.172507055 _3_ MAC  --- 5 ack 98 [13a 6 3 800] ------- [5:0 1:0 29 6] [2 0] 1 0
r 1.173291819 _6_ MAC  --- 5 ack 40 [13a 6 3 800] ------- [5:0 1:0 29 6] [2 0] 2 0
s 1.173301819 _6_ MAC  --- 0 ACK 38 [0 3 0 0] 
r 1.173316819 _6_ RTR  --- 5 ack 40 [13a 6 3 800] ------- [5:0 1:0 29 6] [2 0] 2 0
f 1.173316819 _6_ RTR  --- 5 ack 40 [13a 6 3 800] ------- [5:0 1:0 28 0] [2 0] 2 0
r 1.173606582 _3_ MAC  --- 0 ACK 38 [0 3 0 0] 
s 1.173675819 _6_ MAC  --- 0 RTS 44 [58e 0 6 0] 
r 1.174028588 _0_ MAC  --- 0 RTS 44 [58e 0 6 0] 
s 1.174038588 _0_ MAC  --- 0 CTS 38 [454 6 0 0] 
r 1.174343358 _6_ MAC  --- 0 CTS 38 [454 6 0 0] 
s 1.174353358 _6_ MAC  --- 4 ack 98 [13a 0 6 800] ------- [5:0 1:0 28 0] [1 0] 2 0
r 1.175138128 _0_ MAC  --- 4 ack 40 [13a 0 6 800] ------- [5:0 1:0 28 0] [1 0] 3 0
s 1.175148128 _0_ MAC  --- 0 ACK 38 [0 6 0 0] 
r 1.175163128 _0_ RTR  --- 4 ack 40 [13a 0 6 800] ------- [5:0 1:0 28 0] [1 0] 3 0
f 1.175163128 _0_ RTR  --- 4 ack 40 [13a 0 6 800] ------- [5:0 1:0 27 1] [1 0] 3 0
r 1.175452898 _6_ MAC  --- 0 ACK 38 [0 6 0 0] 
s 1.175562898 _6_ MAC  --- 0 RTS 44 [58e 0 6 0] 
r 1.175915667 _0_ MAC  --- 0 RTS 44 [58e 0 6 0] 
s 1.175925667 _0_ MAC  --- 0 CTS 38 [454 6 0 0] 
r 1.176230437 _6_ MAC  --- 0 CTS 38 [454 6 0 0] 
s 1.176240437 _6_ MAC  --- 5 ack 98 [13a 0 6 800] ------- [5:0 1:0 28 0] [2 0] 2 0
r 1.177025207 _0_ MAC  --- 5 ack 40 [13a 0 6 800] ------- [5:0 1:0 28 0] [2 0] 3 0
s 1.177035207 _0_ MAC  --- 0 ACK 38 [0 6 0 0] 
r 1.177050207 _0_ RTR  --- 5 ack 40 [13a 0 6 800] ------- [5:0 1:0 28 0] [2 0] 3 0
f 1.177050207 _0_ RTR  --- 5 ack 40 [13a 0 6 800] ------- [5:0 1:0 27 1] [2 0] 3 0
r 1.177339977 _6_ MAC  --- 0 ACK 38 [0 6 0 0] 
s 1.177529207 _0_ MAC  --- 0 RTS 44 [58e 1 0 0] 
r 1.177882014 _1_ MAC  --- 0 RTS 44 [58e 1 0 0] 
s 1.177892014 _1_ MAC  --- 0 CTS 38 [454 0 0 0] 
r 1.178196821 _0_ MAC  --- 0 CTS 38 [454 0 0 0] 
s 1.178206821 _0_ MAC  --- 4 ack 98 [13a 1 0 800] ------- [5:0 1:0 27 1] [1 0] 3 0
r 1.178991629 _1_ MAC  --- 4 ack 40 [13a 1 0 800] ------- [5:0 1:0 27 1] [1 0] 4 0
s 1.179001629 _1_ MAC  --- 0 ACK 38 [0 0 0 0] 
r 1.179016629 _1_ AGT  --- 4 ack 40 [13a 1 0 800] ------- [5:0 1:0 27 1] [1 0] 4 0
s 1.179016629 _1_ AGT  --- 6 tcp 1540 [0 0 0 0] ------- [1:0 5:0 32 0] [3 0] 0 0
r 1.179016629 _1_ RTR  --- 6 tcp 1540 [0 0 0 0] ------- [1:0 5:0 32 0] [3 0] 0 0
s 1.179016629 _1_ AGT  --- 7 tcp 1540 [0 0 0 0] ------- [1:0 5:0 32 0] [4 0] 0 0
r 1.179016629 _1_ RTR  --- 7 tcp 1540 [0 0 0 0] ------- [1:0 5:0 32 0] [4 0] 0 0
s 1.179016629 _1_ RTR  --- 6 tcp 1540 [0 0 0 0] ------- [1:0 5:0 30 0] [3 0] 0 0
s 1.179016629 _1_ RTR  --- 7 tcp 1540 [0 0 0 0] ------- [1:0 5:0 30 0] [4 0] 0 0
r 1.179306436 _0_ MAC  --- 0 ACK 38 [0 0 0 0] 
s 1.179476436 _0_ MAC  --- 0 RTS 44 [58e 1 0 0] 
r 1.179829243 _1_ MAC  --- 0 RTS 44 [58e 1 0 0] 
s 1.179839243 _1_ MAC  --- 0 CTS 38 [454 0 0 0] 
r 1.180144050 _0_ MAC  --- 0 CTS 38 [454 0 0 0] 
s 1.180154050 _0_ MAC  --- 5 ack 98 [13a 1 0 800] ------- [5:0 1:0 27 1] [2 0] 3 0
r 1.180938858 _1_ MAC  --- 5 ack 40 [13a 1 0 800] ------- [5:0 1:0 27 1] [2 0] 4 0
s 1.180948858 _1_ MAC  --- 0 ACK 38 [0 0 0 0] 
r 1.180963858 _1_ AGT  --- 5 ack 40 [13a 1 0 800] ------- [5:0 1:0 27 1] [2 0] 4 0
s 1.180963858 _1_ AGT  --- 8 tcp 1540 [0 0 0 0] ------- [1:0 5:0 32 0] [5 0] 0 0
r 1.180963858 _1_ RTR  --- 8 tcp 1540 [0 0 0 0] ------- [1:0 5:0 32 0] [5 0] 0 0
s 1.180963858 _1_ AGT  --- 9 tcp 1540 [0 0 0 0] ------- [1:0 5:0 32 0] [6 0] 0 0
r 1.180963858 _1_ RTR  --- 9 tcp 1540 [0 0 0 0] ------- [1:0 5:0 32 0] [6 0] 0 0
s 1.180963858 _1_ RTR  --- 8 tcp 1540 [0 0 0 0] ------- [1:0 5:0 30 0] [5 0] 0 0
s 1.180963858 _1_ RTR  --- 9 tcp 1540 [0 0 0 0] ------- [1:0 5:0 30 0] [6 0] 0 0
r 1.181253665 _0_ MAC  --- 0 ACK 38 [0 0 0 0] 
s 1.181782858 _1_ MAC  --- 0 RTS 44 [346e 0 1 0] 
r 1.182135665 _0_ MAC  --- 0 RTS 44 [346e 0 1 0] 
s 1.182145665 _0_ MAC  --- 0 CTS 38 [3334 1 0 0] 
r 1.182450472 _1_ MAC  --- 0 CTS 38 [3334 1 0 0] 
s 1.182460472 _1_ MAC  --- 6 tcp 1598 [13a 0 1 800] ------- [1:0 5:0 30 0] [3 0] 0 0
r 1.195245279 _0_ MAC  --- 6 tcp 1540 [13a 0 1 800] ------- [1:0 5:0 30 0] [3 0] 1 0
s 1.195255279 _0_ MAC  --- 0 ACK 38 [0 1 0 0] 
r 1.195270279 _0_ RTR  --- 6 tcp 1540 [13a 0 1 800] ------- [1:0 5:0 30 0] [3 0] 1 0
f 1.195270279 _0_ RTR  --- 6 tcp 1540 [13a 0 1 800] ------- [1:0 5:0 29 6] [3 0] 1 0
r 1.195560086 _1_ MAC  --- 0 ACK 38 [0 1 0 0] 
s 1.195730086 _1_ MAC  --- 0 RTS 44 [346e 0 1 0] 
r 1.196082894 _0_ MAC  --- 0 RTS 44 [346e 0 1 0] 
s 1.196092894 _0_ MAC  --- 0 CTS 38 [3334 1 0 0] 
r 1.196397701 _1_ MAC  --- 0 CTS 38 [3334 1 0 0] 
s 1.196407701 _1_ MAC  --- 7 tcp 1598 [13a 0 1 800] ------- [1:0 5:0 30 0] [4 0] 0 0
r 1.209192508 _0_ MAC  --- 7 tcp 1540 [13a 0 1 800] ------- [1:0 5:0 30 0] [4 0] 1 0
s 1.209202508 _0_ MAC  --- 0 ACK 38 [0 1 0 0] 
r 1.209217508 _0_ RTR  --- 7 tcp 1540 [13a 0 1 800] ------- [1:0 5:0 30 0] [4 0] 1 0
f 1.209217508 _0_ RTR  --- 7 tcp 1540 [13a 0 1 800] ------- [1:0 5:0 29 6] [4 0] 1 0
r 1.209507315 _1_ MAC  --- 0 ACK 38 [0 1 0 0] 
s 1.210016508 _0_ MAC  --- 0 RTS 44 [346e 6 0 0] 
r 1.210369278 _6_ MAC  --- 0 RTS 44 [346e 6 0 0] 
s 1.210379278 _6_ MAC  --- 0 CTS 38 [3334 0 0 0] 
r 1.210684048 _0_ MAC  --- 0 CTS 38 [3334 0 0 0] 
s 1.210694048 _0_ MAC  --- 6 tcp 1598 [13a 6 0 800] ------- [1:0 5:0 29 6] [3 0] 1 0
r 1.223478817 _6_ MAC  --- 6 tcp 1540 [13a 6 0 800] ------- [1:0 5:0 29 6] [3 0] 2 0
s 1.223488817 _6_ MAC  --- 0 ACK 38 [0 0 0 0] 
r 1.223503817 _6_ RTR  --- 6 tcp 1540 [13a 6 0 800] ------- [1:0 5:0 29 6] [3 0] 2 0
f 1.223503817 _6_ RTR  --- 6 tcp 1540 [13a 6 0 800] ------- [1:0 5:0 28 3] [3 0] 2 0
r 1.223793587 _0_ MAC  --- 0 ACK 38 [0 0 0 0] 
s 1.224282817 _6_ MAC  --- 0 RTS 44 [346e 3 6 0] 
r 1.224635581 _3_ MAC  --- 0 RTS 44 [346e 3 6 0] 
s 1.224645581 _3_ MAC  --- 0 CTS 38 [3334 6 0 0] 
r 1.224950345 _6_ MAC  --- 0 CTS 38 [3334 6 0 0] 
s 1.224960345 _6_ MAC  --- 6 tcp 1598 [13a 3 6 800] ------- [1:0 5:0 28 3] [3 0] 2 0
r 1.237745108 _3_ MAC  --- 6 tcp 1540 [13a 3 6 800] ------- [1:0 5:0 28 3] [3 0] 3 0
s 1.237755108 _3_ MAC  --- 0 ACK 38 [0 6 0 0] 
r 1.237770108 _3_ RTR  --- 6 tcp 1540 [13a 3 6 800] ------- [1:0 5:0 28 3] [3 0] 3 0
f 1.237770108 _3_ RTR  --- 6 tcp 1540 [13a 3 6 800] ------- [1:0 5:0 27 5] [3 0] 3 0
r 1.238059872 _6_ MAC  --- 0 ACK 38 [0 6 0 0] 
s 1.238259857 _1_ MAC  --- 0 RTS 44 [346e 0 1 0] 