V -t * -v 1.0a5 -a 0
A -t * -n 1 -p 0 -o 0x7fffffff -c 30 -a 1
A -t * -h 1 -m 1073741823 -s 0
n -t * -a 4 -s 4 -S UP -v circle -c black -i black
n -t * -a 0 -s 0 -S UP -v circle -c black -i black
n -t * -a 5 -s 5 -S UP -v circle -c black -i black
n -t * -a 1 -s 1 -S UP -v circle -c black -i black
n -t * -a 6 -s 6 -S UP -v circle -c black -i black
n -t * -a 2 -s 2 -S UP -v circle -c black -i black
n -t * -a 7 -s 7 -S UP -v circle -c black -i black
n -t * -a 3 -s 3 -S UP -v circle -c black -i black
l -t * -s 3 -d 4 -S UP -r 100000000 -D 0.29999999999999999 -c black
X -t * -n 8 -r 100Mb -D 300ms -o left
L -t * -s 8 -d 0 -o up
L -t * -s 8 -d 1 -o down
L -t * -s 8 -d 2 -o up
L -t * -s 8 -d 3 -o down
X -t * -n 9 -r 100Mb -D 300ms -o left
L -t * -s 9 -d 4 -o up
L -t * -s 9 -d 5 -o down
L -t * -s 9 -d 6 -o up
L -t * -s 9 -d 7 -o down
h -t 0.1 -s 1 -d 8 -p cbr -e 1000 -c 0 -i 0 -a 0 -x {1.0 7.0 0 ------- null}
h -t 0.1 -s 1 -d 8 -p cbr -e 500 -c 0 -i 1 -a 0 -x {1.0 7.0 1 ------- null}
h -t 0.101 -s 1 -d 8 -p cbr -e 1000 -c 0 -i 2 -a 0 -x {1.0 7.0 2 ------- null}
h -t 0.101 -s 1 -d 8 -p cbr -e 500 -c 0 -i 3 -a 0 -x {1.0 7.0 3 ------- null}
h -t 0.102 -s 1 -d 8 -p cbr -e 1000 -c 0 -i 4 -a 0 -x {1.0 7.0 4 ------- null}
h -t 0.102 -s 1 -d 8 -p cbr -e 500 -c 0 -i 5 -a 0 -x {1.0 7.0 5 ------- null}
h -t 0.103 -s 1 -d 8 -p cbr -e 1000 -c 0 -i 6 -a 0 -x {1.0 7.0 6 ------- null}
h -t 0.103 -s 1 -d 8 -p cbr -e 500 -c 0 -i 7 -a 0 -x {1.0 7.0 7 ------- null}
h -t 0.104 -s 1 -d 8 -p cbr -e 1000 -c 0 -i 8 -a 0 -x {1.0 7.0 8 ------- null}
h -t 0.104 -s 1 -d 8 -p cbr -e 500 -c 0 -i 9 -a 0 -x {1.0 7.0 9 ------- null}
h -t 0.105 -s 1 -d 8 -p cbr -e 1000 -c 0 -i 10 -a 0 -x {1.0 7.0 10 ------- null}
h -t 0.105 -s 1 -d 8 -p cbr -e 500 -c 0 -i 11 -a 0 -x {1.0 7.0 11 ------- null}
h -t 0.106 -s 1 -d 8 -p cbr -e 1000 -c 0 -i 12 -a 0 -x {1.0 7.0 12 ------- null}
h -t 0.106 -s 1 -d 8 -p cbr -e 500 -c 0 -i 13 -a 0 -x {1.0 7.0 13 ------- null}
h -t 0.107 -s 1 -d 8 -p cbr -e 1000 -c 0 -i 14 -a 0 -x {1.0 7.0 14 ------- null}
h -t 0.107 -s 1 -d 8 -p cbr -e 500 -c 0 -i 15 -a 0 -x {1.0 7.0 15 ------- null}
h -t 0.108 -s 1 -d 8 -p cbr -e 1000 -c 0 -i 16 -a 0 -x {1.0 7.0 16 ------- null}
h -t 0.108 -s 1 -d 8 -p cbr -e 500 -c 0 -i 17 -a 0 -x {1.0 7.0 17 ------- null}
h -t 0.109 -s 1 -d 8 -p cbr -e 1000 -c 0 -i 18 -a 0 -x {1.0 7.0 18 ------- null}
h -t 0.109 -s 1 -d 8 -p cbr -e 500 -c 0 -i 19 -a 0 -x {1.0 7.0 19 ------- null}
h -t 0.11 -s 1 -d 8 -p cbr -e 1000 -c 0 -i 20 -a 0 -x {1.0 7.0 20 ------- null}
h -t 0.11 -s 1 -d 8 -p cbr -e 500 -c 0 -i 21 -a 0 -x {1.0 7.0 21 ------- null}
h -t 0.111 -s 1 -d 8 -p cbr -e 1000 -c 0 -i 22 -a 0 -x {1.0 7.0 22 ------- null}
h -t 0.111 -s 1 -d 8 -p cbr -e 500 -c 0 -i 23 -a 0 -x {1.0 7.0 23 ------- null}
h -t 0.112 -s 1 -d 8 -p cbr -e 1000 -c 0 -i 24 -a 0 -x {1.0 7.0 24 ------- null}
h -t 0.112 -s 1 -d 8 -p cbr -e 500 -c 0 -i 25 -a 0 -x {1.0 7.0 25 ------- null}
h -t 0.113 -s 1 -d 8 -p cbr -e 1000 -c 0 -i 26 -a 0 -x {1.0 7.0 26 ------- null}
h -t 0.113 -s 1 -d 8 -p cbr -e 500 -c 0 -i 27 -a 0 -x {1.0 7.0 27 ------- null}
h -t 0.114 -s 1 -d 8 -p cbr -e 1000 -c 0 -i 28 -a 0 -x {1.0 7.0 28 ------- null}
h -t 0.114 -s 1 -d 8 -p cbr -e 500 -c 0 -i 29 -a 0 -x {1.0 7.0 29 ------- null}
h -t 0.115 -s 1 -d 8 -p cbr -e 1000 -c 0 -i 30 -a 0 -x {1.0 7.0 30 ------- null}
h -t 0.115 -s 1 -d 8 -p cbr -e 500 -c 0 -i 31 -a 0 -x {1.0 7.0 31 ------- null}
h -t 0.116 -s 1 -d 8 -p cbr -e 1000 -c 0 -i 32 -a 0 -x {1.0 7.0 32 ------- null}
h -t 0.116 -s 1 -d 8 -p cbr -e 500 -c 0 -i 33 -a 0 -x {1.0 7.0 33 ------- null}
h -t 0.117 -s 1 -d 8 -p cbr -e 1000 -c 0 -i 34 -a 0 -x {1.0 7.0 34 ------- null}
h -t 0.117 -s 1 -d 8 -p cbr -e 500 -c 0 -i 35 -a 0 -x {1.0 7.0 35 ------- null}
h -t 0.118 -s 1 -d 8 -p cbr -e 1000 -c 0 -i 36 -a 0 -x {1.0 7.0 36 ------- null}
h -t 0.118 -s 1 -d 8 -p cbr -e 500 -c 0 -i 37 -a 0 -x {1.0 7.0 37 ------- null}
h -t 0.119 -s 1 -d 8 -p cbr -e 1000 -c 0 -i 38 -a 0 -x {1.0 7.0 38 ------- null}
h -t 0.119 -s 1 -d 8 -p cbr -e 500 -c 0 -i 39 -a 0 -x {1.0 7.0 39 ------- null}
h -t 0.12 -s 1 -d 8 -p cbr -e 1000 -c 0 -i 40 -a 0 -x {1.0 7.0 40 ------- null}
h -t 0.12 -s 1 -d 8 -p cbr -e 500 -c 0 -i 41 -a 0 -x {1.0 7.0 41 ------- null}
h -t 0.121 -s 1 -d 8 -p cbr -e 1000 -c 0 -i 42 -a 0 -x {1.0 7.0 42 ------- null}
h -t 0.121 -s 1 -d 8 -p cbr -e 500 -c 0 -i 43 -a 0 -x {1.0 7.0 43 ------- null}
h -t 0.122 -s 1 -d 8 -p cbr -e 1000 -c 0 -i 44 -a 0 -x {1.0 7.0 44 ------- null}
h -t 0.122 -s 1 -d 8 -p cbr -e 500 -c 0 -i 45 -a 0 -x {1.0 7.0 45 ------- null}
h -t 0.123 -s 1 -d 8 -p cbr -e 1000 -c 0 -i 46 -a 0 -x {1.0 7.0 46 ------- null}
h -t 0.123 -s 1 -d 8 -p cbr -e 500 -c 0 -i 47 -a 0 -x {1.0 7.0 47 ------- null}
h -t 0.124 -s 1 -d 8 -p cbr -e 1000 -c 0 -i 48 -a 0 -x {1.0 7.0 48 ------- null}
h -t 0.124 -s 1 -d 8 -p cbr -e 500 -c 0 -i 49 -a 0 -x {1.0 7.0 49 ------- null}
h -t 0.125 -s 1 -d 8 -p cbr -e 1000 -c 0 -i 50 -a 0 -x {1.0 7.0 50 ------- null}
h -t 0.125 -s 1 -d 8 -p cbr -e 500 -c 0 -i 51 -a 0 -x {1.0 7.0 51 ------- null}
h -t 0.126 -s 1 -d 8 -p cbr -e 1000 -c 0 -i 52 -a 0 -x {1.0 7.0 52 ------- null}
h -t 0.126 -s 1 -d 8 -p cbr -e 500 -c 0 -i 53 -a 0 -x {1.0 7.0 53 ------- null}
h -t 0.127 -s 1 -d 8 -p cbr -e 1000 -c 0 -i 54 -a 0 -x {1.0 7.0 54 ------- null}
h -t 0.127 -s 1 -d 8 -p cbr -e 500 -c 0 -i 55 -a 0 -x {1.0 7.0 55 ------- null}
h -t 0.128 -s 1 -d 8 -p cbr -e 1000 -c 0 -i 56 -a 0 -x {1.0 7.0 56 ------- null}
h -t 0.128 -s 1 -d 8 -p cbr -e 500 -c 0 -i 57 -a 0 -x {1.0 7.0 57 ------- null}
h -t 0.129 -s 1 -d 8 -p cbr -e 1000 -c 0 -i 58 -a 0 -x {1.0 7.0 58 ------- null}
h -t 0.129 -s 1 -d 8 -p cbr -e 500 -c 0 -i 59 -a 0 -x {1.0 7.0 59 ------- null}
h -t 0.13 -s 1 -d 8 -p cbr -e 1000 -c 0 -i 60 -a 0 -x {1.0 7.0 60 ------- null}
h -t 0.13 -s 1 -d 8 -p cbr -e 500 -c 0 -i 61 -a 0 -x {1.0 7.0 61 ------- null}
h -t 0.131 -s 1 -d 8 -p cbr -e 1000 -c 0 -i 62 -a 0 -x {1.0 7.0 62 ------- null}
h -t 0.131 -s 1 -d 8 -p cbr -e 500 -c 0 -i 63 -a 0 -x {1.0 7.0 63 ------- null}
h -t 0.132 -s 1 -d 8 -p cbr -e 1000 -c 0 -i 64 -a 0 -x {1.0 7.0 64 ------- null}
h -t 0.132 -s 1 -d 8 -p cbr -e 500 -c 0 -i 65 -a 0 -x {1.0 7.0 65 ------- null}
h -t 0.133 -s 1 -d 8 -p cbr -e 1000 -c 0 -i 66 -a 0 -x {1.0 7.0 66 ------- null}
h -t 0.133 -s 1 -d 8 -p cbr -e 500 -c 0 -i 67 -a 0 -x {1.0 7.0 67 ------- null}
h -t 0.134 -s 1 -d 8 -p cbr -e 1000 -c 0 -i 68 -a 0 -x {1.0 7.0 68 ------- null}
h -t 0.134 -s 1 -d 8 -p cbr -e 500 -c 0 -i 69 -a 0 -x {1.0 7.0 69 ------- null}
h -t 0.135 -s 1 -d 8 -p cbr -e 1000 -c 0 -i 70 -a 0 -x {1.0 7.0 70 ------- null}
h -t 0.135 -s 1 -d 8 -p cbr -e 500 -c 0 -i 71 -a 0 -x {1.0 7.0 71 ------- null}
h -t 0.136 -s 1 -d 8 -p cbr -e 1000 -c 0 -i 72 -a 0 -x {1.0 7.0 72 ------- null}
h -t 0.136 -s 1 -d 8 -p cbr -e 500 -c 0 -i 73 -a 0 -x {1.0 7.0 73 ------- null}
h -t 0.137 -s 1 -d 8 -p cbr -e 1000 -c 0 -i 74 -a 0 -x {1.0 7.0 74 ------- null}
h -t 0.137 -s 1 -d 8 -p cbr -e 500 -c 0 -i 75 -a 0 -x {1.0 7.0 75 ------- null}
h -t 0.138 -s 1 -d 8 -p cbr -e 1000 -c 0 -i 76 -a 0 -x {1.0 7.0 76 ------- null}
h -t 0.138 -s 1 -d 8 -p cbr -e 500 -c 0 -i 77 -a 0 -x {1.0 7.0 77 ------- null}
h -t 0.139 -s 1 -d 8 -p cbr -e 1000 -c 0 -i 78 -a 0 -x {1.0 7.0 78 ------- null}
h -t 0.139 -s 1 -d 8 -p cbr -e 500 -c 0 -i 79 -a 0 -x {1.0 7.0 79 ------- null}
h -t 0.14 -s 1 -d 8 -p cbr -e 1000 -c 0 -i 80 -a 0 -x {1.0 7.0 80 ------- null}
h -t 0.14 -s 1 -d 8 -p cbr -e 500 -c 0 -i 81 -a 0 -x {1.0 7.0 81 ------- null}
h -t 0.141 -s 1 -d 8 -p cbr -e 1000 -c 0 -i 82 -a 0 -x {1.0 7.0 82 ------- null}
h -t 0.141 -s 1 -d 8 -p cbr -e 500 -c 0 -i 83 -a 0 -x {1.0 7.0 83 ------- null}
h -t 0.142 -s 1 -d 8 -p cbr -e 1000 -c 0 -i 84 -a 0 -x {1.0 7.0 84 ------- null}
h -t 0.142 -s 1 -d 8 -p cbr -e 500 -c 0 -i 85 -a 0 -x {1.0 7.0 85 ------- null}
h -t 0.143 -s 1 -d 8 -p cbr -e 1000 -c 0 -i 86 -a 0 -x {1.0 7.0 86 ------- null}
h -t 0.143 -s 1 -d 8 -p cbr -e 500 -c 0 -i 87 -a 0 -x {1.0 7.0 87 ------- null}
h -t 0.144 -s 1 -d 8 -p cbr -e 1000 -c 0 -i 88 -a 0 -x {1.0 7.0 88 ------- null}
h -t 0.144 -s 1 -d 8 -p cbr -e 500 -c 0 -i 89 -a 0 -x {1.0 7.0 89 ------- null}
h -t 0.145 -s 1 -d 8 -p cbr -e 1000 -c 0 -i 90 -a 0 -x {1.0 7.0 90 ------- null}
h -t 0.145 -s 1 -d 8 -p cbr -e 500 -c 0 -i 91 -a 0 -x {1.0 7.0 91 ------- null}
h -t 0.146 -s 1 -d 8 -p cbr -e 1000 -c 0 -i 92 -a 0 -x {1.0 7.0 92 ------- null}
h -t 0.146 -s 1 -d 8 -p cbr -e 500 -c 0 -i 93 -a 0 -x {1.0 7.0 93 ------- null}
h -t 0.147 -s 1 -d 8 -p cbr -e 1000 -c 0 -i 94 -a 0 -x {1.0 7.0 94 ------- null}
h -t 0.147 -s 1 -d 8 -p cbr -e 500 -c 0 -i 95 -a 0 -x {1.0 7.0 95 ------- null}
h -t 0.148 -s 1 -d 8 -p cbr -e 1000 -c 0 -i 96 -a 0 -x {1.0 7.0 96 ------- null}
h -t 0.148 -s 1 -d 8 -p cbr -e 500 -c 0 -i 97 -a 0 -x {1.0 7.0 97 ------- null}
h -t 0.149 -s 1 -d 8 -p cbr -e 1000 -c 0 -i 98 -a 0 -x {1.0 7.0 98 ------- null}
h -t 0.149 -s 1 -d 8 -p cbr -e 500 -c 0 -i 99 -a 0 -x {1.0 7.0 99 ------- null}
h -t 0.15 -s 1 -d 8 -p cbr -e 1000 -c 0 -i 100 -a 0 -x {1.0 7.0 100 ------- null}
h -t 0.15 -s 1 -d 8 -p cbr -e 500 -c 0 -i 101 -a 0 -x {1.0 7.0 101 ------- null}
h -t 0.151 -s 1 -d 8 -p cbr -e 1000 -c 0 -i 102 -a 0 -x {1.0 7.0 102 ------- null}
h -t 0.151 -s 1 -d 8 -p cbr -e 500 -c 0 -i 103 -a 0 -x {1.0 7.0 103 ------- null}
h -t 0.152 -s 1 -d 8 -p cbr -e 1000 -c 0 -i 104 -a 0 -x {1.0 7.0 104 ------- null}
h -t 0.152 -s 1 -d 8 -p cbr -e 500 -c 0 -i 105 -a 0 -x {1.0 7.0 105 ------- null}
h -t 0.153 -s 1 -d 8 -p cbr -e 1000 -c 0 -i 106 -a 0 -x {1.0 7.0 106 ------- null}
h -t 0.153 -s 1 -d 8 -p cbr -e 500 -c 0 -i 107 -a 0 -x {1.0 7.0 107 ------- null}
h -t 0.154 -s 1 -d 8 -p cbr -e 1000 -c 0 -i 108 -a 0 -x {1.0 7.0 108 ------- null}
h -t 0.154 -s 1 -d 8 -p cbr -e 500 -c 0 -i 109 -a 0 -x {1.0 7.0 109 ------- null}
h -t 0.155 -s 1 -d 8 -p cbr -e 1000 -c 0 -i 110 -a 0 -x {1.0 7.0 110 ------- null}
h -t 0.155 -s 1 -d 8 -p cbr -e 500 -c 0 -i 111 -a 0 -x {1.0 7.0 111 ------- null}
h -t 0.156 -s 1 -d 8 -p cbr -e 1000 -c 0 -i 112 -a 0 -x {1.0 7.0 112 ------- null}
h -t 0.156 -s 1 -d 8 -p cbr -e 500 -c 0 -i 113 -a 0 -x {1.0 7.0 113 ------- null}
h -t 0.157 -s 1 -d 8 -p cbr -e 1000 -c 0 -i 114 -a 0 -x {1.0 7.0 114 ------- null}
h -t 0.157 -s 1 -d 8 -p cbr -e 500 -c 0 -i 115 -a 0 -x {1.0 7.0 115 ------- null}
h -t 0.158 -s 1 -d 8 -p cbr -e 1000 -c 0 -i 116 -a 0 -x {1.0 7.0 116 ------- null}
h -t 0.158 -s 1 -d 8 -p cbr -e 500 -c 0 -i 117 -a 0 -x {1.0 7.0 117 ------- null}
h -t 0.159 -s 1 -d 8 -p cbr -e 1000 -c 0 -i 118 -a 0 -x {1.0 7.0 118 ------- null}
h -t 0.159 -s 1 -d 8 -p cbr -e 500 -c 0 -i 119 -a 0 -x {1.0 7.0 119 ------- null}
h -t 0.16 -s 1 -d 8 -p cbr -e 1000 -c 0 -i 120 -a 0 -x {1.0 7.0 120 ------- null}
h -t 0.16 -s 1 -d 8 -p cbr -e 500 -c 0 -i 121 -a 0 -x {1.0 7.0 121 ------- null}
h -t 0.161 -s 1 -d 8 -p cbr -e 1000 -c 0 -i 122 -a 0 -x {1.0 7.0 122 ------- null}
h -t 0.161 -s 1 -d 8 -p cbr -e 500 -c 0 -i 123 -a 0 -x {1.0 7.0 123 ------- null}
h -t 0.162 -s 1 -d 8 -p cbr -e 1000 -c 0 -i 124 -a 0 -x {1.0 7.0 124 ------- null}
h -t 0.162 -s 1 -d 8 -p cbr -e 500 -c 0 -i 125 -a 0 -x {1.0 7.0 125 ------- null}
h -t 0.163 -s 1 -d 8 -p cbr -e 1000 -c 0 -i 126 -a 0 -x {1.0 7.0 126 ------- null}
h -t 0.163 -s 1 -d 8 -p cbr -e 500 -c 0 -i 127 -a 0 -x {1.0 7.0 127 ------- null}
h -t 0.164 -s 1 -d 8 -p cbr -e 1000 -c 0 -i 128 -a 0 -x {1.0 7.0 128 ------- null}
h -t 0.164 -s 1 -d 8 -p cbr -e 500 -c 0 -i 129 -a 0 -x {1.0 7.0 129 ------- null}
h -t 0.165 -s 1 -d 8 -p cbr -e 1000 -c 0 -i 130 -a 0 -x {1.0 7.0 130 ------- null}
h -t 0.165 -s 1 -d 8 -p cbr -e 500 -c 0 -i 131 -a 0 -x {1.0 7.0 131 ------- null}
h -t 0.166 -s 1 -d 8 -p cbr -e 1000 -c 0 -i 132 -a 0 -x {1.0 7.0 132 ------- null}
h -t 0.166 -s 1 -d 8 -p cbr -e 500 -c 0 -i 133 -a 0 -x {1.0 7.0 133 ------- null}
h -t 0.167 -s 1 -d 8 -p cbr -e 1000 -c 0 -i 134 -a 0 -x {1.0 7.0 134 ------- null}
h -t 0.167 -s 1 -d 8 -p cbr -e 500 -c 0 -i 135 -a 0 -x {1.0 7.0 135 ------- null}
h -t 0.168 -s 1 -d 8 -p cbr -e 1000 -c 0 -i 136 -a 0 -x {1.0 7.0 136 ------- null}
h -t 0.168 -s 1 -d 8 -p cbr -e 500 -c 0 -i 137 -a 0 -x {1.0 7.0 137 ------- null}
h -t 0.169 -s 1 -d 8 -p cbr -e 1000 -c 0 -i 138 -a 0 -x {1.0 7.0 138 ------- null}
h -t 0.169 -s 1 -d 8 -p cbr -e 500 -c 0 -i 139 -a 0 -x {1.0 7.0 139 ------- null}
h -t 0.17 -s 1 -d 8 -p cbr -e 1000 -c 0 -i 140 -a 0 -x {1.0 7.0 140 ------- null}
h -t 0.17 -s 1 -d 8 -p cbr -e 500 -c 0 -i 141 -a 0 -x {1.0 7.0 141 ------- null}
h -t 0.171 -s 1 -d 8 -p cbr -e 1000 -c 0 -i 142 -a 0 -x {1.0 7.0 142 ------- null}
h -t 0.171 -s 1 -d 8 -p cbr -e 500 -c 0 -i 143 -a 0 -x {1.0 7.0 143 ------- null}
h -t 0.172 -s 1 -d 8 -p cbr -e 1000 -c 0 -i 144 -a 0 -x {1.0 7.0 144 ------- null}
h -t 0.172 -s 1 -d 8 -p cbr -e 500 -c 0 -i 145 -a 0 -x {1.0 7.0 145 ------- null}
h -t 0.173 -s 1 -d 8 -p cbr -e 1000 -c 0 -i 146 -a 0 -x {1.0 7.0 146 ------- null}
h -t 0.173 -s 1 -d 8 -p cbr -e 500 -c 0 -i 147 -a 0 -x {1.0 7.0 147 ------- null}
h -t 0.174 -s 1 -d 8 -p cbr -e 1000 -c 0 -i 148 -a 0 -x {1.0 7.0 148 ------- null}
h -t 0.174 -s 1 -d 8 -p cbr -e 500 -c 0 -i 149 -a 0 -x {1.0 7.0 149 ------- null}
h -t 0.175 -s 1 -d 8 -p cbr -e 1000 -c 0 -i 150 -a 0 -x {1.0 7.0 150 ------- null}
h -t 0.175 -s 1 -d 8 -p cbr -e 500 -c 0 -i 151 -a 0 -x {1.0 7.0 151 ------- null}
h -t 0.176 -s 1 -d 8 -p cbr -e 1000 -c 0 -i 152 -a 0 -x {1.0 7.0 152 ------- null}
h -t 0.176 -s 1 -d 8 -p cbr -e 500 -c 0 -i 153 -a 0 -x {1.0 7.0 153 ------- null}
h -t 0.177 -s 1 -d 8 -p cbr -e 1000 -c 0 -i 154 -a 0 -x {1.0 7.0 154 ------- null}
h -t 0.177 -s 1 -d 8 -p cbr -e 500 -c 0 -i 155 -a 0 -x {1.0 7.0 155 ------- null}
h -t 0.178 -s 1 -d 8 -p cbr -e 1000 -c 0 -i 156 -a 0 -x {1.0 7.0 156 ------- null}
h -t 0.178 -s 1 -d 8 -p cbr -e 500 -c 0 -i 157 -a 0 -x {1.0 7.0 157 ------- null}
h -t 0.179 -s 1 -d 8 -p cbr -e 1000 -c 0 -i 158 -a 0 -x {1.0 7.0 158 ------- null}
h -t 0.179 -s 1 -d 8 -p cbr -e 500 -c 0 -i 159 -a 0 -x {1.0 7.0 159 ------- null}
h -t 0.18 -s 1 -d 8 -p cbr -e 1000 -c 0 -i 160 -a 0 -x {1.0 7.0 160 ------- null}
h -t 0.18 -s 1 -d 8 -p cbr -e 500 -c 0 -i 161 -a 0 -x {1.0 7.0 161 ------- null}
h -t 0.181 -s 1 -d 8 -p cbr -e 1000 -c 0 -i 162 -a 0 -x {1.0 7.0 162 ------- null}
h -t 0.181 -s 1 -d 8 -p cbr -e 500 -c 0 -i 163 -a 0 -x {1.0 7.0 163 ------- null}
h -t 0.182 -s 1 -d 8 -p cbr -e 1000 -c 0 -i 164 -a 0 -x {1.0 7.0 164 ------- null}
h -t 0.182 -s 1 -d 8 -p cbr -e 500 -c 0 -i 165 -a 0 -x {1.0 7.0 165 ------- null}
h -t 0.183 -s 1 -d 8 -p cbr -e 1000 -c 0 -i 166 -a 0 -x {1.0 7.0 166 ------- null}
h -t 0.183 -s 1 -d 8 -p cbr -e 500 -c 0 -i 167 -a 0 -x {1.0 7.0 167 ------- null}
h -t 0.184 -s 1 -d 8 -p cbr -e 1000 -c 0 -i 168 -a 0 -x {1.0 7.0 168 ------- null}
h -t 0.184 -s 1 -d 8 -p cbr -e 500 -c 0 -i 169 -a 0 -x {1.0 7.0 169 ------- null}
h -t 0.185 -s 1 -d 8 -p cbr -e 1000 -c 0 -i 170 -a 0 -x {1.0 7.0 170 ------- null}
h -t 0.185 -s 1 -d 8 -p cbr -e 500 -c 0 -i 171 -a 0 -x {1.0 7.0 171 ------- null}
h -t 0.186 -s 1 -d 8 -p cbr -e 1000 -c 0 -i 172 -a 0 -x {1.0 7.0 172 ------- null}
h -t 0.186 -s 1 -d 8 -p cbr -e 500 -c 0 -i 173 -a 0 -x {1.0 7.0 173 ------- null}
h -t 0.187 -s 1 -d 8 -p cbr -e 1000 -c 0 -i 174 -a 0 -x {1.0 7.0 174 ------- null}
h -t 0.187 -s 1 -d 8 -p cbr -e 500 -c 0 -i 175 -a 0 -x {1.0 7.0 175 ------- null}
h -t 0.188 -s 1 -d 8 -p cbr -e 1000 -c 0 -i 176 -a 0 -x {1.0 7.0 176 ------- null}
h -t 0.188 -s 1 -d 8 -p cbr -e 500 -c 0 -i 177 -a 0 -x {1.0 7.0 177 ------- null}
h -t 0.189 -s 1 -d 8 -p cbr -e 1000 -c 0 -i 178 -a 0 -x {1.0 7.0 178 ------- null}
h -t 0.189 -s 1 -d 8 -p cbr -e 500 -c 0 -i 179 -a 0 -x {1.0 7.0 179 ------- null}
h -t 0.19 -s 1 -d 8 -p cbr -e 1000 -c 0 -i 180 -a 0 -x {1.0 7.0 180 ------- null}
h -t 0.19 -s 1 -d 8 -p cbr -e 500 -c 0 -i 181 -a 0 -x {1.0 7.0 181 ------- null}
h -t 0.191 -s 1 -d 8 -p cbr -e 1000 -c 0 -i 182 -a 0 -x {1.0 7.0 182 ------- null}
h -t 0.191 -s 1 -d 8 -p cbr -e 500 -c 0 -i 183 -a 0 -x {1.0 7.0 183 ------- null}
h -t 0.192 -s 1 -d 8 -p cbr -e 1000 -c 0 -i 184 -a 0 -x {1.0 7.0 184 ------- null}
h -t 0.192 -s 1 -d 8 -p cbr -e 500 -c 0 -i 185 -a 0 -x {1.0 7.0 185 ------- null}
h -t 0.193 -s 1 -d 8 -p cbr -e 1000 -c 0 -i 186 -a 0 -x {1.0 7.0 186 ------- null}
h -t 0.193 -s 1 -d 8 -p cbr -e 500 -c 0 -i 187 -a 0 -x {1.0 7.0 187 ------- null}
h -t 0.194 -s 1 -d 8 -p cbr -e 1000 -c 0 -i 188 -a 0 -x {1.0 7.0 188 ------- null}
h -t 0.194 -s 1 -d 8 -p cbr -e 500 -c 0 -i 189 -a 0 -x {1.0 7.0 189 ------- null}
h -t 0.195 -s 1 -d 8 -p cbr -e 1000 -c 0 -i 190 -a 0 -x {1.0 7.0 190 ------- null}
h -t 0.195 -s 1 -d 8 -p cbr -e 500 -c 0 -i 191 -a 0 -x {1.0 7.0 191 ------- null}
h -t 0.196 -s 1 -d 8 -p cbr -e 1000 -c 0 -i 192 -a 0 -x {1.0 7.0 192 ------- null}
h -t 0.196 -s 1 -d 8 -p cbr -e 500 -c 0 -i 193 -a 0 -x {1.0 7.0 193 ------- null}
h -t 0.197 -s 1 -d 8 -p cbr -e 1000 -c 0 -i 194 -a 0 -x {1.0 7.0 194 ------- null}
h -t 0.197 -s 1 -d 8 -p cbr -e 500 -c 0 -i 195 -a 0 -x {1.0 7.0 195 ------- null}
h -t 0.198 -s 1 -d 8 -p cbr -e 1000 -c 0 -i 196 -a 0 -x {1.0 7.0 196 ------- null}
h -t 0.198 -s 1 -d 8 -p cbr -e 500 -c 0 -i 197 -a 0 -x {1.0 7.0 197 ------- null}
h -t 0.199 -s 1 -d 8 -p cbr -e 1000 -c 0 -i 198 -a 0 -x {1.0 7.0 198 ------- null}
h -t 0.199 -s 1 -d 8 -p cbr -e 500 -c 0 -i 199 -a 0 -x {1.0 7.0 199 ------- null}
h -t 0.2 -s 1 -d 8 -p cbr -e 1000 -c 0 -i 200 -a 0 -x {1.0 7.0 200 ------- null}
h -t 0.2 -s 1 -d 8 -p cbr -e 500 -c 0 -i 201 -a 0 -x {1.0 7.0 201 ------- null}
h -t 0.201 -s 1 -d 8 -p cbr -e 1000 -c 0 -i 202 -a 0 -x {1.0 7.0 202 ------- null}
h -t 0.201 -s 1 -d 8 -p cbr -e 500 -c 0 -i 203 -a 0 -x {1.0 7.0 203 ------- null}
h -t 0.202 -s 1 -d 8 -p cbr -e 1000 -c 0 -i 204 -a 0 -x {1.0 7.0 204 ------- null}
h -t 0.202 -s 1 -d 8 -p cbr -e 500 -c 0 -i 205 -a 0 -x {1.0 7.0 205 ------- null}
h -t 0.203 -s 1 -d 8 -p cbr -e 1000 -c 0 -i 206 -a 0 -x {1.0 7.0 206 ------- null}
h -t 0.203 -s 1 -d 8 -p cbr -e 500 -c 0 -i 207 -a 0 -x {1.0 7.0 207 ------- null}
h -t 0.204 -s 1 -d 8 -p cbr -e 1000 -c 0 -i 208 -a 0 -x {1.0 7.0 208 ------- null}
h -t 0.204 -s 1 -d 8 -p cbr -e 500 -c 0 -i 209 -a 0 -x {1.0 7.0 209 ------- null}
h -t 0.205 -s 1 -d 8 -p cbr -e 1000 -c 0 -i 210 -a 0 -x {1.0 7.0 210 ------- null}
h -t 0.205 -s 1 -d 8 -p cbr -e 500 -c 0 -i 211 -a 0 -x {1.0 7.0 211 ------- null}
h -t 0.206 -s 1 -d 8 -p cbr -e 1000 -c 0 -i 212 -a 0 -x {1.0 7.0 212 ------- null}
h -t 0.206 -s 1 -d 8 -p cbr -e 500 -c 0 -i 213 -a 0 -x {1.0 7.0 213 ------- null}
h -t 0.207 -s 1 -d 8 -p cbr -e 1000 -c 0 -i 214 -a 0 -x {1.0 7.0 214 ------- null}
h -t 0.207 -s 1 -d 8 -p cbr -e 500 -c 0 -i 215 -a 0 -x {1.0 7.0 215 ------- null}
h -t 0.208 -s 1 -d 8 -p cbr -e 1000 -c 0 -i 216 -a 0 -x {1.0 7.0 216 ------- null}
h -t 0.208 -s 1 -d 8 -p cbr -e 500 -c 0 -i 217 -a 0 -x {1.0 7.0 217 ------- null}
h -t 0.209 -s 1 -d 8 -p cbr -e 1000 -c 0 -i 218 -a 0 -x {1.0 7.0 218 ------- null}
h -t 0.209 -s 1 -d 8 -p cbr -e 500 -c 0 -i 219 -a 0 -x {1.0 7.0 219 ------- null}
h -t 0.21 -s 1 -d 8 -p cbr -e 1000 -c 0 -i 220 -a 0 -x {1.0 7.0 220 ------- null}
h -t 0.21 -s 1 -d 8 -p cbr -e 500 -c 0 -i 221 -a 0 -x {1.0 7.0 221 ------- null}
h -t 0.211 -s 1 -d 8 -p cbr -e 1000 -c 0 -i 222 -a 0 -x {1.0 7.0 222 ------- null}
h -t 0.211 -s 1 -d 8 -p cbr -e 500 -c 0 -i 223 -a 0 -x {1.0 7.0 223 ------- null}
h -t 0.212 -s 1 -d 8 -p cbr -e 1000 -c 0 -i 224 -a 0 -x {1.0 7.0 224 ------- null}
h -t 0.212 -s 1 -d 8 -p cbr -e 500 -c 0 -i 225 -a 0 -x {1.0 7.0 225 ------- null}
h -t 0.213 -s 1 -d 8 -p cbr -e 1000 -c 0 -i 226 -a 0 -x {1.0 7.0 226 ------- null}
h -t 0.213 -s 1 -d 8 -p cbr -e 500 -c 0 -i 227 -a 0 -x {1.0 7.0 227 ------- null}
h -t 0.214 -s 1 -d 8 -p cbr -e 1000 -c 0 -i 228 -a 0 -x {1.0 7.0 228 ------- null}
h -t 0.214 -s 1 -d 8 -p cbr -e 500 -c 0 -i 229 -a 0 -x {1.0 7.0 229 ------- null}
h -t 0.215 -s 1 -d 8 -p cbr -e 1000 -c 0 -i 230 -a 0 -x {1.0 7.0 230 ------- null}
h -t 0.215 -s 1 -d 8 -p cbr -e 500 -c 0 -i 231 -a 0 -x {1.0 7.0 231 ------- null}
h -t 0.216 -s 1 -d 8 -p cbr -e 1000 -c 0 -i 232 -a 0 -x {1.0 7.0 232 ------- null}
h -t 0.216 -s 1 -d 8 -p cbr -e 500 -c 0 -i 233 -a 0 -x {1.0 7.0 233 ------- null}
h -t 0.217 -s 1 -d 8 -p cbr -e 1000 -c 0 -i 234 -a 0 -x {1.0 7.0 234 ------- null}
h -t 0.217 -s 1 -d 8 -p cbr -e 500 -c 0 -i 235 -a 0 -x {1.0 7.0 235 ------- null}
h -t 0.218 -s 1 -d 8 -p cbr -e 1000 -c 0 -i 236 -a 0 -x {1.0 7.0 236 ------- null}
h -t 0.218 -s 1 -d 8 -p cbr -e 500 -c 0 -i 237 -a 0 -x {1.0 7.0 237 ------- null}
h -t 0.219 -s 1 -d 8 -p cbr -e 1000 -c 0 -i 238 -a 0 -x {1.0 7.0 238 ------- null}
h -t 0.219 -s 1 -d 8 -p cbr -e 500 -c 0 -i 239 -a 0 -x {1.0 7.0 239 ------- null}
h -t 0.22 -s 1 -d 8 -p cbr -e 1000 -c 0 -i 240 -a 0 -x {1.0 7.0 240 ------- null}
h -t 0.22 -s 1 -d 8 -p cbr -e 500 -c 0 -i 241 -a 0 -x {1.0 7.0 241 ------- null}
h -t 0.221 -s 1 -d 8 -p cbr -e 1000 -c 0 -i 242 -a 0 -x {1.0 7.0 242 ------- null}
h -t 0.221 -s 1 -d 8 -p cbr -e 500 -c 0 -i 243 -a 0 -x {1.0 7.0 243 ------- null}
h -t 0.222 -s 1 -d 8 -p cbr -e 1000 -c 0 -i 244 -a 0 -x {1.0 7.0 244 ------- null}
h -t 0.222 -s 1 -d 8 -p cbr -e 500 -c 0 -i 245 -a 0 -x {1.0 7.0 245 ------- null}
h -t 0.223 -s 1 -d 8 -p cbr -e 1000 -c 0 -i 246 -a 0 -x {1.0 7.0 246 ------- null}
h -t 0.223 -s 1 -d 8 -p cbr -e 500 -c 0 -i 247 -a 0 -x {1.0 7.0 247 ------- null}
h -t 0.224 -s 1 -d 8 -p cbr -e 1000 -c 0 -i 248 -a 0 -x {1.0 7.0 248 ------- null}
h -t 0.224 -s 1 -d 8 -p cbr -e 500 -c 0 -i 249 -a 0 -x {1.0 7.0 249 ------- null}
h -t 0.225 -s 1 -d 8 -p cbr -e 1000 -c 0 -i 250 -a 0 -x {1.0 7.0 250 ------- null}
h -t 0.225 -s 1 -d 8 -p cbr -e 500 -c 0 -i 251 -a 0 -x {1.0 7.0 251 ------- null}
h -t 0.226 -s 1 -d 8 -p cbr -e 1000 -c 0 -i 252 -a 0 -x {1.0 7.0 252 ------- null}
h -t 0.226 -s 1 -d 8 -p cbr -e 500 -c 0 -i 253 -a 0 -x {1.0 7.0 253 ------- null}
h -t 0.227 -s 1 -d 8 -p cbr -e 1000 -c 0 -i 254 -a 0 -x {1.0 7.0 254 ------- null}
h -t 0.227 -s 1 -d 8 -p cbr -e 500 -c 0 -i 255 -a 0 -x {1.0 7.0 255 ------- null}
h -t 0.228 -s 1 -d 8 -p cbr -e 1000 -c 0 -i 256 -a 0 -x {1.0 7.0 256 ------- null}
h -t 0.228 -s 1 -d 8 -p cbr -e 500 -c 0 -i 257 -a 0 -x {1.0 7.0 257 ------- null}
h -t 0.229 -s 1 -d 8 -p cbr -e 1000 -c 0 -i 258 -a 0 -x {1.0 7.0 258 ------- null}
h -t 0.229 -s 1 -d 8 -p cbr -e 500 -c 0 -i 259 -a 0 -x {1.0 7.0 259 ------- null}
h -t 0.23 -s 1 -d 8 -p cbr -e 1000 -c 0 -i 260 -a 0 -x {1.0 7.0 260 ------- null}
h -t 0.23 -s 1 -d 8 -p cbr -e 500 -c 0 -i 261 -a 0 -x {1.0 7.0 261 ------- null}
h -t 0.231 -s 1 -d 8 -p cbr -e 1000 -c 0 -i 262 -a 0 -x {1.0 7.0 262 ------- null}
h -t 0.231 -s 1 -d 8 -p cbr -e 500 -c 0 -i 263 -a 0 -x {1.0 7.0 263 ------- null}
h -t 0.232 -s 1 -d 8 -p cbr -e 1000 -c 0 -i 264 -a 0 -x {1.0 7.0 264 ------- null}
h -t 0.232 -s 1 -d 8 -p cbr -e 500 -c 0 -i 265 -a 0 -x {1.0 7.0 265 ------- null}
h -t 0.233 -s 1 -d 8 -p cbr -e 1000 -c 0 -i 266 -a 0 -x {1.0 7.0 266 ------- null}
h -t 0.233 -s 1 -d 8 -p cbr -e 500 -c 0 -i 267 -a 0 -x {1.0 7.0 267 ------- null}
h -t 0.234 -s 1 -d 8 -p cbr -e 1000 -c 0 -i 268 -a 0 -x {1.0 7.0 268 ------- null}
h -t 0.234 -s 1 -d 8 -p cbr -e 500 -c 0 -i 269 -a 0 -x {1.0 7.0 269 ------- null}
h -t 0.235 -s 1 -d 8 -p cbr -e 1000 -c 0 -i 270 -a 0 -x {1.0 7.0 270 ------- null}
h -t 0.235 -s 1 -d 8 -p cbr -e 500 -c 0 -i 271 -a 0 -x {1.0 7.0 271 ------- null}
h -t 0.236 -s 1 -d 8 -p cbr -e 1000 -c 0 -i 272 -a 0 -x {1.0 7.0 272 ------- null}
h -t 0.236 -s 1 -d 8 -p cbr -e 500 -c 0 -i 273 -a 0 -x {1.0 7.0 273 ------- null}
h -t 0.237 -s 1 -d 8 -p cbr -e 1000 -c 0 -i 274 -a 0 -x {1.0 7.0 274 ------- null}
h -t 0.237 -s 1 -d 8 -p cbr -e 500 -c 0 -i 275 -a 0 -x {1.0 7.0 275 ------- null}
h -t 0.238 -s 1 -d 8 -p cbr -e 1000 -c 0 -i 276 -a 0 -x {1.0 7.0 276 ------- null}
h -t 0.238 -s 1 -d 8 -p cbr -e 500 -c 0 -i 277 -a 0 -x {1.0 7.0 277 ------- null}
h -t 0.239 -s 1 -d 8 -p cbr -e 1000 -c 0 -i 278 -a 0 -x {1.0 7.0 278 ------- null}
h -t 0.239 -s 1 -d 8 -p cbr -e 500 -c 0 -i 279 -a 0 -x {1.0 7.0 279 ------- null}
h -t 0.24 -s 1 -d 8 -p cbr -e 1000 -c 0 -i 280 -a 0 -x {1.0 7.0 280 ------- null}
h -t 0.24 -s 1 -d 8 -p cbr -e 500 -c 0 -i 281 -a 0 -x {1.0 7.0 281 ------- null}
h -t 0.241 -s 1 -d 8 -p cbr -e 1000 -c 0 -i 282 -a 0 -x {1.0 7.0 282 ------- null}
h -t 0.241 -s 1 -d 8 -p cbr -e 500 -c 0 -i 283 -a 0 -x {1.0 7.0 283 ------- null}
h -t 0.242 -s 1 -d 8 -p cbr -e 1000 -c 0 -i 284 -a 0 -x {1.0 7.0 284 ------- null}
h -t 0.242 -s 1 -d 8 -p cbr -e 500 -c 0 -i 285 -a 0 -x {1.0 7.0 285 ------- null}
h -t 0.243 -s 1 -d 8 -p cbr -e 1000 -c 0 -i 286 -a 0 -x {1.0 7.0 286 ------- null}
h -t 0.243 -s 1 -d 8 -p cbr -e 500 -c 0 -i 287 -a 0 -x {1.0 7.0 287 ------- null}
h -t 0.244 -s 1 -d 8 -p cbr -e 1000 -c 0 -i 288 -a 0 -x {1.0 7.0 288 ------- null}
h -t 0.244 -s 1 -d 8 -p cbr -e 500 -c 0 -i 289 -a 0 -x {1.0 7.0 289 ------- null}
h -t 0.245 -s 1 -d 8 -p cbr -e 1000 -c 0 -i 290 -a 0 -x {1.0 7.0 290 ------- null}
h -t 0.245 -s 1 -d 8 -p cbr -e 500 -c 0 -i 291 -a 0 -x {1.0 7.0 291 ------- null}
h -t 0.246 -s 1 -d 8 -p cbr -e 1000 -c 0 -i 292 -a 0 -x {1.0 7.0 292 ------- null}
h -t 0.246 -s 1 -d 8 -p cbr -e 500 -c 0 -i 293 -a 0 -x {1.0 7.0 293 ------- null}
h -t 0.247 -s 1 -d 8 -p cbr -e 1000 -c 0 -i 294 -a 0 -x {1.0 7.0 294 ------- null}
h -t 0.247 -s 1 -d 8 -p cbr -e 500 -c 0 -i 295 -a 0 -x {1.0 7.0 295 ------- null}
h -t 0.248 -s 1 -d 8 -p cbr -e 1000 -c 0 -i 296 -a 0 -x {1.0 7.0 296 ------- null}
h -t 0.248 -s 1 -d 8 -p cbr -e 500 -c 0 -i 297 -a 0 -x {1.0 7.0 297 ------- null}
h -t 0.249 -s 1 -d 8 -p cbr -e 1000 -c 0 -i 298 -a 0 -x {1.0 7.0 298 ------- null}
h -t 0.249 -s 1 -d 8 -p cbr -e 500 -c 0 -i 299 -a 0 -x {1.0 7.0 299 ------- null}
h -t 0.25 -s 1 -d 8 -p cbr -e 1000 -c 0 -i 300 -a 0 -x {1.0 7.0 300 ------- null}
h -t 0.25 -s 1 -d 8 -p cbr -e 500 -c 0 -i 301 -a 0 -x {1.0 7.0 301 ------- null}
h -t 0.251 -s 1 -d 8 -p cbr -e 1000 -c 0 -i 302 -a 0 -x {1.0 7.0 302 ------- null}
h -t 0.251 -s 1 -d 8 -p cbr -e 500 -c 0 -i 303 -a 0 -x {1.0 7.0 303 ------- null}
h -t 0.252 -s 1 -d 8 -p cbr -e 1000 -c 0 -i 304 -a 0 -x {1.0 7.0 304 ------- null}
h -t 0.252 -s 1 -d 8 -p cbr -e 500 -c 0 -i 305 -a 0 -x {1.0 7.0 305 ------- null}
h -t 0.253 -s 1 -d 8 -p cbr -e 1000 -c 0 -i 306 -a 0 -x {1.0 7.0 306 ------- null}
h -t 0.253 -s 1 -d 8 -p cbr -e 500 -c 0 -i 307 -a 0 -x {1.0 7.0 307 ------- null}
h -t 0.254 -s 1 -d 8 -p cbr -e 1000 -c 0 -i 308 -a 0 -x {1.0 7.0 308 ------- null}
h -t 0.254 -s 1 -d 8 -p cbr -e 500 -c 0 -i 309 -a 0 -x {1.0 7.0 309 ------- null}
h -t 0.255 -s 1 -d 8 -p cbr -e 1000 -c 0 -i 310 -a 0 -x {1.0 7.0 310 ------- null}
h -t 0.255 -s 1 -d 8 -p cbr -e 500 -c 0 -i 311 -a 0 -x {1.0 7.0 311 ------- null}
h -t 0.256 -s 1 -d 8 -p cbr -e 1000 -c 0 -i 312 -a 0 -x {1.0 7.0 312 ------- null}
h -t 0.256 -s 1 -d 8 -p cbr -e 500 -c 0 -i 313 -a 0 -x {1.0 7.0 313 ------- null}
h -t 0.257 -s 1 -d 8 -p cbr -e 1000 -c 0 -i 314 -a 0 -x {1.0 7.0 314 ------- null}
h -t 0.257 -s 1 -d 8 -p cbr -e 500 -c 0 -i 315 -a 0 -x {1.0 7.0 315 ------- null}
h -t 0.258 -s 1 -d 8 -p cbr -e 1000 -c 0 -i 316 -a 0 -x {1.0 7.0 316 ------- null}
h -t 0.258 -s 1 -d 8 -p cbr -e 500 -c 0 -i 317 -a 0 -x {1.0 7.0 317 ------- null}
h -t 0.259 -s 1 -d 8 -p cbr -e 1000 -c 0 -i 318 -a 0 -x {1.0 7.0 318 ------- null}
h -t 0.259 -s 1 -d 8 -p cbr -e 500 -c 0 -i 319 -a 0 -x {1.0 7.0 319 ------- null}
h -t 0.26 -s 1 -d 8 -p cbr -e 1000 -c 0 -i 320 -a 0 -x {1.0 7.0 320 ------- null}
h -t 0.26 -s 1 -d 8 -p cbr -e 500 -c 0 -i 321 -a 0 -x {1.0 7.0 321 ------- null}
h -t 0.261 -s 1 -d 8 -p cbr -e 1000 -c 0 -i 322 -a 0 -x {1.0 7.0 322 ------- null}
h -t 0.261 -s 1 -d 8 -p cbr -e 500 -c 0 -i 323 -a 0 -x {1.0 7.0 323 ------- null}
h -t 0.262 -s 1 -d 8 -p cbr -e 1000 -c 0 -i 324 -a 0 -x {1.0 7.0 324 ------- null}
h -t 0.262 -s 1 -d 8 -p cbr -e 500 -c 0 -i 325 -a 0 -x {1.0 7.0 325 ------- null}
h -t 0.263 -s 1 -d 8 -p cbr -e 1000 -c 0 -i 326 -a 0 -x {1.0 7.0 326 ------- null}
h -t 0.263 -s 1 -d 8 -p cbr -e 500 -c 0 -i 327 -a 0 -x {1.0 7.0 327 ------- null}
h -t 0.264 -s 1 -d 8 -p cbr -e 1000 -c 0 -i 328 -a 0 -x {1.0 7.0 328 ------- null}
h -t 0.264 -s 1 -d 8 -p cbr -e 500 -c 0 -i 329 -a 0 -x {1.0 7.0 329 ------- null}
h -t 0.265 -s 1 -d 8 -p cbr -e 1000 -c 0 -i 330 -a 0 -x {1.0 7.0 330 ------- null}
h -t 0.265 -s 1 -d 8 -p cbr -e 500 -c 0 -i 331 -a 0 -x {1.0 7.0 331 ------- null}
h -t 0.266 -s 1 -d 8 -p cbr -e 1000 -c 0 -i 332 -a 0 -x {1.0 7.0 332 ------- null}
h -t 0.266 -s 1 -d 8 -p cbr -e 500 -c 0 -i 333 -a 0 -x {1.0 7.0 333 ------- null}
h -t 0.267 -s 1 -d 8 -p cbr -e 1000 -c 0 -i 334 -a 0 -x {1.0 7.0 334 ------- null}
h -t 0.267 -s 1 -d 8 -p cbr -e 500 -c 0 -i 335 -a 0 -x {1.0 7.0 335 ------- null}
h -t 0.268 -s 1 -d 8 -p cbr -e 1000 -c 0 -i 336 -a 0 -x {1.0 7.0 336 ------- null}
h -t 0.268 -s 1 -d 8 -p cbr -e 500 -c 0 -i 337 -a 0 -x {1.0 7.0 337 ------- null}
h -t 0.269 -s 1 -d 8 -p cbr -e 1000 -c 0 -i 338 -a 0 -x {1.0 7.0 338 ------- null}
h -t 0.269 -s 1 -d 8 -p cbr -e 500 -c 0 -i 339 -a 0 -x {1.0 7.0 339 ------- null}
h -t 0.27 -s 1 -d 8 -p cbr -e 1000 -c 0 -i 340 -a 0 -x {1.0 7.0 340 ------- null}
h -t 0.27 -s 1 -d 8 -p cbr -e 500 -c 0 -i 341 -a 0 -x {1.0 7.0 341 ------- null}
h -t 0.271 -s 1 -d 8 -p cbr -e 1000 -c 0 -i 342 -a 0 -x {1.0 7.0 342 ------- null}
h -t 0.271 -s 1 -d 8 -p cbr -e 500 -c 0 -i 343 -a 0 -x {1.0 7.0 343 ------- null}
h -t 0.272 -s 1 -d 8 -p cbr -e 1000 -c 0 -i 344 -a 0 -x {1.0 7.0 344 ------- null}
h -t 0.272 -s 1 -d 8 -p cbr -e 500 -c 0 -i 345 -a 0 -x {1.0 7.0 345 ------- null}
h -t 0.273 -s 1 -d 8 -p cbr -e 1000 -c 0 -i 346 -a 0 -x {1.0 7.0 346 ------- null}
h -t 0.273 -s 1 -d 8 -p cbr -e 500 -c 0 -i 347 -a 0 -x {1.0 7.0 347 ------- null}
h -t 0.274 -s 1 -d 8 -p cbr -e 1000 -c 0 -i 348 -a 0 -x {1.0 7.0 348 ------- null}
h -t 0.274 -s 1 -d 8 -p cbr -e 500 -c 0 -i 349 -a 0 -x {1.0 7.0 349 ------- null}
h -t 0.275 -s 1 -d 8 -p cbr -e 1000 -c 0 -i 350 -a 0 -x {1.0 7.0 350 ------- null}
h -t 0.275 -s 1 -d 8 -p cbr -e 500 -c 0 -i 351 -a 0 -x {1.0 7.0 351 ------- null}
h -t 0.276 -s 1 -d 8 -p cbr -e 1000 -c 0 -i 352 -a 0 -x {1.0 7.0 352 ------- null}
h -t 0.276 -s 1 -d 8 -p cbr -e 500 -c 0 -i 353 -a 0 -x {1.0 7.0 353 ------- null}
h -t 0.277 -s 1 -d 8 -p cbr -e 1000 -c 0 -i 354 -a 0 -x {1.0 7.0 354 ------- null}
h -t 0.277 -s 1 -d 8 -p cbr -e 500 -c 0 -i 355 -a 0 -x {1.0 7.0 355 ------- null}